<?xml version="1.0" encoding="UTF-8"?>

<!-- generated on Thu 14 Nov 2019 01:01:48 AM EST by Eclipse SUMO GUI Version 1.3.1
<configuration xmlns:xsi="http://www.w3.org/2001/XMLSchema-instance" xsi:noNamespaceSchemaLocation="http://sumo.dlr.de/xsd/sumoConfiguration.xsd">

    <input>
        <net-file value="data/cross.net.xml"/>
        <route-files value="data/cross.rou.xml"/>
        <additional-files value="data/cross.det.xml"/>
    </input>

    <output>
        <tripinfo-output value="tripinfo.xml"/>
    </output>

    <time>
        <begin value="0"/>
    </time>

    <report>
        <verbose value="true"/>
        <no-step-log value="true"/>
    </report>

    <traci_server>
        <remote-port value="50669"/>
    </traci_server>

    <gui_only>
        <gui-settings-file value="data/gui.settings.xml"/>
    </gui_only>

</configuration>
-->

<tripinfos xmlns:xsi="http://www.w3.org/2001/XMLSchema-instance" xsi:noNamespaceSchemaLocation="http://sumo.dlr.de/xsd/tripinfo_file.xsd">
    <tripinfo id="left_0" depart="0.00" departLane="52o_0" departPos="5.10" departSpeed="0.00" departDelay="0.00" arrival="88.00" arrivalLane="51i_0" arrivalPos="10.00" arrivalSpeed="12.27" duration="88.00" routeLength="1015.10" waitingTime="0.00" waitingCount="0" stopTime="0.00" timeLoss="14.64" rerouteNo="0" devices="tripinfo_left_0" vType="typeWE" speedFactor="1.06" vaporized=""/>
    <tripinfo id="right_2" depart="3.00" departLane="51o_0" departPos="5.10" departSpeed="0.00" departDelay="0.00" arrival="94.00" arrivalLane="52i_0" arrivalPos="10.00" arrivalSpeed="11.56" duration="91.00" routeLength="1015.10" waitingTime="0.00" waitingCount="0" stopTime="0.00" timeLoss="15.00" rerouteNo="0" devices="tripinfo_right_2" vType="typeWE" speedFactor="1.01" vaporized=""/>
    <tripinfo id="left_1" depart="5.00" departLane="52o_0" departPos="5.10" departSpeed="0.00" departDelay="3.00" arrival="99.00" arrivalLane="51i_0" arrivalPos="10.00" arrivalSpeed="10.79" duration="94.00" routeLength="1015.10" waitingTime="0.00" waitingCount="0" stopTime="0.00" timeLoss="14.80" rerouteNo="0" devices="tripinfo_left_1" vType="typeWE" speedFactor="0.94" vaporized=""/>
    <tripinfo id="down_6" depart="13.00" departLane="54o_0" departPos="7.10" departSpeed="0.00" departDelay="0.00" arrival="105.00" arrivalLane="53i_0" arrivalPos="10.00" arrivalSpeed="11.88" duration="92.00" routeLength="1013.10" waitingTime="0.00" waitingCount="0" stopTime="0.00" timeLoss="23.87" rerouteNo="0" devices="tripinfo_down_6" vType="typeNS" speedFactor="1.05" vaporized=""/>
    <tripinfo id="down_7" depart="19.00" departLane="54o_0" departPos="7.10" departSpeed="0.00" departDelay="5.00" arrival="115.00" arrivalLane="53i_0" arrivalPos="10.00" arrivalSpeed="10.27" duration="96.00" routeLength="1013.10" waitingTime="0.00" waitingCount="0" stopTime="0.00" timeLoss="15.26" rerouteNo="0" devices="tripinfo_down_7" vType="typeNS" speedFactor="0.89" vaporized=""/>
    <tripinfo id="down_9" depart="29.00" departLane="54o_0" departPos="7.10" departSpeed="0.00" departDelay="0.00" arrival="128.00" arrivalLane="53i_0" arrivalPos="10.00" arrivalSpeed="9.69" duration="99.00" routeLength="1013.10" waitingTime="0.00" waitingCount="0" stopTime="0.00" timeLoss="15.40" rerouteNo="0" devices="tripinfo_down_9" vType="typeNS" speedFactor="0.86" vaporized=""/>
    <tripinfo id="down_14" depart="43.00" departLane="54o_0" departPos="7.10" departSpeed="0.00" departDelay="0.00" arrival="132.00" arrivalLane="53i_0" arrivalPos="10.00" arrivalSpeed="11.00" duration="89.00" routeLength="1013.10" waitingTime="0.00" waitingCount="0" stopTime="0.00" timeLoss="16.83" rerouteNo="0" devices="tripinfo_down_14" vType="typeNS" speedFactor="0.99" vaporized=""/>
    <tripinfo id="right_3" depart="8.00" departLane="51o_0" departPos="5.10" departSpeed="0.00" departDelay="4.00" arrival="147.00" arrivalLane="52i_0" arrivalPos="10.00" arrivalSpeed="12.10" duration="139.00" routeLength="1015.10" waitingTime="39.00" waitingCount="1" stopTime="0.00" timeLoss="66.08" rerouteNo="0" devices="tripinfo_right_3" vType="typeWE" speedFactor="1.08" vaporized=""/>
    <tripinfo id="left_4" depart="10.00" departLane="52o_0" departPos="5.10" departSpeed="0.00" departDelay="4.00" arrival="149.00" arrivalLane="51i_0" arrivalPos="10.00" arrivalSpeed="11.76" duration="139.00" routeLength="1015.10" waitingTime="38.00" waitingCount="1" stopTime="0.00" timeLoss="64.20" rerouteNo="0" devices="tripinfo_left_4" vType="typeWE" speedFactor="1.03" vaporized=""/>
    <tripinfo id="down_19" depart="65.00" departLane="54o_0" departPos="7.10" departSpeed="0.00" departDelay="0.00" arrival="151.00" arrivalLane="53i_0" arrivalPos="10.00" arrivalSpeed="13.47" duration="86.00" routeLength="1013.10" waitingTime="0.00" waitingCount="0" stopTime="0.00" timeLoss="24.19" rerouteNo="0" devices="tripinfo_down_19" vType="typeNS" speedFactor="1.16" vaporized=""/>
    <tripinfo id="left_8" depart="22.00" departLane="52o_0" departPos="5.10" departSpeed="0.00" departDelay="0.00" arrival="155.00" arrivalLane="51i_0" arrivalPos="10.00" arrivalSpeed="11.06" duration="133.00" routeLength="1015.10" waitingTime="26.00" waitingCount="1" stopTime="0.00" timeLoss="53.42" rerouteNo="0" devices="tripinfo_left_8" vType="typeWE" speedFactor="0.94" vaporized=""/>
    <tripinfo id="right_5" depart="13.00" departLane="51o_0" departPos="5.10" departSpeed="0.00" departDelay="4.00" arrival="160.00" arrivalLane="52i_0" arrivalPos="10.00" arrivalSpeed="9.61" duration="147.00" routeLength="1015.10" waitingTime="36.00" waitingCount="1" stopTime="0.00" timeLoss="60.43" rerouteNo="0" devices="tripinfo_right_5" vType="typeWE" speedFactor="0.83" vaporized=""/>
    <tripinfo id="down_21" depart="74.00" departLane="54o_0" departPos="7.10" departSpeed="0.00" departDelay="0.00" arrival="161.00" arrivalLane="53i_0" arrivalPos="10.00" arrivalSpeed="10.83" duration="87.00" routeLength="1013.10" waitingTime="0.00" waitingCount="0" stopTime="0.00" timeLoss="16.22" rerouteNo="0" devices="tripinfo_down_21" vType="typeNS" speedFactor="1.01" vaporized=""/>
    <tripinfo id="down_22" depart="79.00" departLane="54o_0" departPos="7.10" departSpeed="0.00" departDelay="3.00" arrival="171.00" arrivalLane="53i_0" arrivalPos="10.00" arrivalSpeed="11.03" duration="92.00" routeLength="1013.10" waitingTime="0.00" waitingCount="0" stopTime="0.00" timeLoss="18.76" rerouteNo="0" devices="tripinfo_down_22" vType="typeNS" speedFactor="0.98" vaporized=""/>
    <tripinfo id="down_25" depart="89.00" departLane="54o_0" departPos="7.10" departSpeed="0.00" departDelay="0.00" arrival="188.00" arrivalLane="53i_0" arrivalPos="10.00" arrivalSpeed="9.99" duration="99.00" routeLength="1013.10" waitingTime="0.00" waitingCount="0" stopTime="0.00" timeLoss="16.86" rerouteNo="0" devices="tripinfo_down_25" vType="typeNS" speedFactor="0.87" vaporized=""/>
    <tripinfo id="down_26" depart="96.00" departLane="54o_0" departPos="7.10" departSpeed="0.00" departDelay="0.00" arrival="191.00" arrivalLane="53i_0" arrivalPos="10.00" arrivalSpeed="10.72" duration="95.00" routeLength="1013.10" waitingTime="0.00" waitingCount="0" stopTime="0.00" timeLoss="16.93" rerouteNo="0" devices="tripinfo_down_26" vType="typeNS" speedFactor="0.92" vaporized=""/>
    <tripinfo id="left_10" depart="31.00" departLane="52o_0" departPos="5.10" departSpeed="0.00" departDelay="0.00" arrival="197.00" arrivalLane="51i_0" arrivalPos="10.00" arrivalSpeed="11.77" duration="166.00" routeLength="1015.10" waitingTime="60.00" waitingCount="2" stopTime="0.00" timeLoss="93.73" rerouteNo="0" devices="tripinfo_left_10" vType="typeWE" speedFactor="1.09" vaporized=""/>
    <tripinfo id="right_13" depart="42.00" departLane="51o_0" departPos="5.10" departSpeed="0.00" departDelay="0.00" arrival="197.00" arrivalLane="52i_0" arrivalPos="10.00" arrivalSpeed="12.90" duration="155.00" routeLength="1015.10" waitingTime="48.00" waitingCount="2" stopTime="0.00" timeLoss="83.83" rerouteNo="0" devices="tripinfo_right_13" vType="typeWE" speedFactor="1.12" vaporized=""/>
    <tripinfo id="left_11" depart="36.00" departLane="52o_0" departPos="5.10" departSpeed="0.00" departDelay="3.00" arrival="202.00" arrivalLane="51i_0" arrivalPos="10.00" arrivalSpeed="11.39" duration="166.00" routeLength="1015.10" waitingTime="56.00" waitingCount="2" stopTime="0.00" timeLoss="91.16" rerouteNo="0" devices="tripinfo_left_11" vType="typeWE" speedFactor="1.03" vaporized=""/>
    <tripinfo id="left_12" depart="41.00" departLane="52o_0" departPos="5.10" departSpeed="0.00" departDelay="0.00" arrival="204.00" arrivalLane="51i_0" arrivalPos="10.00" arrivalSpeed="12.22" duration="163.00" routeLength="1015.10" waitingTime="52.00" waitingCount="2" stopTime="0.00" timeLoss="88.92" rerouteNo="0" devices="tripinfo_left_12" vType="typeWE" speedFactor="1.05" vaporized=""/>
    <tripinfo id="right_17" depart="55.00" departLane="51o_0" departPos="5.10" departSpeed="0.00" departDelay="0.00" arrival="205.00" arrivalLane="52i_0" arrivalPos="10.00" arrivalSpeed="11.17" duration="150.00" routeLength="1015.10" waitingTime="39.00" waitingCount="1" stopTime="0.00" timeLoss="71.38" rerouteNo="0" devices="tripinfo_right_17" vType="typeWE" speedFactor="0.94" vaporized=""/>
    <tripinfo id="right_18" depart="61.00" departLane="51o_0" departPos="5.10" departSpeed="0.00" departDelay="0.00" arrival="208.00" arrivalLane="52i_0" arrivalPos="10.00" arrivalSpeed="10.57" duration="147.00" routeLength="1015.10" waitingTime="39.00" waitingCount="1" stopTime="0.00" timeLoss="67.37" rerouteNo="0" devices="tripinfo_right_18" vType="typeWE" speedFactor="0.94" vaporized=""/>
    <tripinfo id="right_20" depart="69.00" departLane="51o_0" departPos="5.10" departSpeed="0.00" departDelay="0.00" arrival="209.00" arrivalLane="52i_0" arrivalPos="10.00" arrivalSpeed="10.38" duration="140.00" routeLength="1015.10" waitingTime="33.00" waitingCount="1" stopTime="0.00" timeLoss="65.04" rerouteNo="0" devices="tripinfo_right_20" vType="typeWE" speedFactor="1.02" vaporized=""/>
    <tripinfo id="left_15" depart="46.00" departLane="52o_0" departPos="5.10" departSpeed="0.00" departDelay="1.00" arrival="211.00" arrivalLane="51i_0" arrivalPos="10.00" arrivalSpeed="10.64" duration="165.00" routeLength="1015.10" waitingTime="50.00" waitingCount="2" stopTime="0.00" timeLoss="84.83" rerouteNo="0" devices="tripinfo_left_15" vType="typeWE" speedFactor="0.93" vaporized=""/>
    <tripinfo id="down_31" depart="122.00" departLane="54o_0" departPos="7.10" departSpeed="0.00" departDelay="0.00" arrival="212.00" arrivalLane="53i_0" arrivalPos="10.00" arrivalSpeed="13.40" duration="90.00" routeLength="1013.10" waitingTime="0.00" waitingCount="0" stopTime="0.00" timeLoss="27.72" rerouteNo="0" devices="tripinfo_down_31" vType="typeNS" speedFactor="1.15" vaporized=""/>
    <tripinfo id="right_23" depart="84.00" departLane="51o_0" departPos="5.10" departSpeed="0.00" departDelay="0.00" arrival="214.00" arrivalLane="52i_0" arrivalPos="10.00" arrivalSpeed="10.18" duration="130.00" routeLength="1015.10" waitingTime="18.00" waitingCount="1" stopTime="0.00" timeLoss="48.31" rerouteNo="0" devices="tripinfo_right_23" vType="typeWE" speedFactor="0.89" vaporized=""/>
    <tripinfo id="down_36" depart="139.00" departLane="54o_0" departPos="7.10" departSpeed="0.00" departDelay="0.00" arrival="230.00" arrivalLane="53i_0" arrivalPos="10.00" arrivalSpeed="10.98" duration="91.00" routeLength="1013.10" waitingTime="0.00" waitingCount="0" stopTime="0.00" timeLoss="17.64" rerouteNo="0" devices="tripinfo_down_36" vType="typeNS" speedFactor="0.97" vaporized=""/>
    <tripinfo id="right_27" depart="99.00" departLane="51o_0" departPos="5.10" departSpeed="0.00" departDelay="0.00" arrival="260.00" arrivalLane="52i_0" arrivalPos="10.00" arrivalSpeed="10.96" duration="161.00" routeLength="1015.10" waitingTime="47.00" waitingCount="2" stopTime="0.00" timeLoss="82.72" rerouteNo="0" devices="tripinfo_right_27" vType="typeWE" speedFactor="0.95" vaporized=""/>
    <tripinfo id="left_16" depart="53.00" departLane="52o_0" departPos="5.10" departSpeed="0.00" departDelay="0.00" arrival="264.00" arrivalLane="51i_0" arrivalPos="10.00" arrivalSpeed="10.23" duration="211.00" routeLength="1015.10" waitingTime="82.00" waitingCount="3" stopTime="0.00" timeLoss="128.41" rerouteNo="0" devices="tripinfo_left_16" vType="typeWE" speedFactor="0.88" vaporized=""/>
    <tripinfo id="right_29" depart="108.00" departLane="51o_0" departPos="5.10" departSpeed="0.00" departDelay="0.00" arrival="265.00" arrivalLane="52i_0" arrivalPos="10.00" arrivalSpeed="10.50" duration="157.00" routeLength="1015.10" waitingTime="38.00" waitingCount="1" stopTime="0.00" timeLoss="77.45" rerouteNo="0" devices="tripinfo_right_29" vType="typeWE" speedFactor="0.93" vaporized=""/>
    <tripinfo id="left_24" depart="85.00" departLane="52o_0" departPos="5.10" departSpeed="0.00" departDelay="0.00" arrival="269.00" arrivalLane="51i_0" arrivalPos="10.00" arrivalSpeed="9.45" duration="184.00" routeLength="1015.10" waitingTime="60.00" waitingCount="2" stopTime="0.00" timeLoss="97.24" rerouteNo="0" devices="tripinfo_left_24" vType="typeWE" speedFactor="0.83" vaporized=""/>
    <tripinfo id="down_47" depart="172.00" departLane="54o_0" departPos="7.10" departSpeed="0.00" departDelay="0.00" arrival="270.00" arrivalLane="53i_0" arrivalPos="10.00" arrivalSpeed="10.50" duration="98.00" routeLength="1013.10" waitingTime="0.00" waitingCount="0" stopTime="0.00" timeLoss="18.84" rerouteNo="0" devices="tripinfo_down_47" vType="typeNS" speedFactor="0.90" vaporized=""/>
    <tripinfo id="left_28" depart="99.00" departLane="52o_0" departPos="5.10" departSpeed="0.00" departDelay="0.00" arrival="304.00" arrivalLane="51i_0" arrivalPos="10.00" arrivalSpeed="13.28" duration="205.00" routeLength="1015.10" waitingTime="91.00" waitingCount="3" stopTime="0.00" timeLoss="134.12" rerouteNo="0" devices="tripinfo_left_28" vType="typeWE" speedFactor="1.13" vaporized=""/>
    <tripinfo id="right_30" depart="114.00" departLane="51o_0" departPos="5.10" departSpeed="0.00" departDelay="0.00" arrival="304.00" arrivalLane="52i_0" arrivalPos="10.00" arrivalSpeed="13.34" duration="190.00" routeLength="1015.10" waitingTime="76.00" waitingCount="2" stopTime="0.00" timeLoss="120.19" rerouteNo="0" devices="tripinfo_right_30" vType="typeWE" speedFactor="1.18" vaporized=""/>
    <tripinfo id="down_57" depart="218.00" departLane="54o_0" departPos="7.10" departSpeed="0.00" departDelay="0.00" arrival="309.00" arrivalLane="53i_0" arrivalPos="10.00" arrivalSpeed="13.14" duration="91.00" routeLength="1013.10" waitingTime="0.00" waitingCount="0" stopTime="0.00" timeLoss="27.96" rerouteNo="0" devices="tripinfo_down_57" vType="typeNS" speedFactor="1.14" vaporized=""/>
    <tripinfo id="down_59" depart="227.00" departLane="54o_0" departPos="7.10" departSpeed="0.00" departDelay="0.00" arrival="319.00" arrivalLane="53i_0" arrivalPos="10.00" arrivalSpeed="11.27" duration="92.00" routeLength="1013.10" waitingTime="0.00" waitingCount="0" stopTime="0.00" timeLoss="17.73" rerouteNo="0" devices="tripinfo_down_59" vType="typeNS" speedFactor="0.97" vaporized=""/>
    <tripinfo id="down_63" depart="238.00" departLane="54o_0" departPos="7.10" departSpeed="0.00" departDelay="0.00" arrival="329.00" arrivalLane="53i_0" arrivalPos="10.00" arrivalSpeed="11.49" duration="91.00" routeLength="1013.10" waitingTime="0.00" waitingCount="0" stopTime="0.00" timeLoss="18.07" rerouteNo="0" devices="tripinfo_down_63" vType="typeNS" speedFactor="0.99" vaporized=""/>
    <tripinfo id="down_65" depart="244.00" departLane="54o_0" departPos="7.10" departSpeed="0.00" departDelay="2.00" arrival="342.00" arrivalLane="53i_0" arrivalPos="10.00" arrivalSpeed="10.38" duration="98.00" routeLength="1013.10" waitingTime="0.00" waitingCount="0" stopTime="0.00" timeLoss="16.36" rerouteNo="0" devices="tripinfo_down_65" vType="typeNS" speedFactor="0.88" vaporized=""/>
    <tripinfo id="left_33" depart="131.00" departLane="52o_0" departPos="5.10" departSpeed="0.00" departDelay="0.00" arrival="349.00" arrivalLane="51i_0" arrivalPos="10.00" arrivalSpeed="13.35" duration="218.00" routeLength="1015.10" waitingTime="107.00" waitingCount="3" stopTime="0.00" timeLoss="148.44" rerouteNo="0" devices="tripinfo_left_33" vType="typeWE" speedFactor="1.17" vaporized=""/>
    <tripinfo id="right_32" depart="125.00" departLane="51o_0" departPos="5.10" departSpeed="0.00" departDelay="0.00" arrival="354.00" arrivalLane="52i_0" arrivalPos="10.00" arrivalSpeed="11.38" duration="229.00" routeLength="1015.10" waitingTime="113.00" waitingCount="3" stopTime="0.00" timeLoss="153.27" rerouteNo="0" devices="tripinfo_right_32" vType="typeWE" speedFactor="1.01" vaporized=""/>
    <tripinfo id="right_38" depart="145.00" departLane="51o_0" departPos="5.10" departSpeed="0.00" departDelay="0.00" arrival="356.00" arrivalLane="52i_0" arrivalPos="10.00" arrivalSpeed="11.91" duration="211.00" routeLength="1015.10" waitingTime="91.00" waitingCount="3" stopTime="0.00" timeLoss="138.95" rerouteNo="0" devices="tripinfo_right_38" vType="typeWE" speedFactor="1.10" vaporized=""/>
    <tripinfo id="left_34" depart="136.00" departLane="52o_0" departPos="5.10" departSpeed="0.00" departDelay="1.00" arrival="357.00" arrivalLane="51i_0" arrivalPos="10.00" arrivalSpeed="11.36" duration="221.00" routeLength="1015.10" waitingTime="100.00" waitingCount="3" stopTime="0.00" timeLoss="144.62" rerouteNo="0" devices="tripinfo_left_34" vType="typeWE" speedFactor="0.99" vaporized=""/>
    <tripinfo id="right_43" depart="167.00" departLane="51o_0" departPos="5.10" departSpeed="0.00" departDelay="0.00" arrival="358.00" arrivalLane="52i_0" arrivalPos="10.00" arrivalSpeed="11.95" duration="191.00" routeLength="1015.10" waitingTime="74.00" waitingCount="2" stopTime="0.00" timeLoss="116.41" rerouteNo="0" devices="tripinfo_right_43" vType="typeWE" speedFactor="1.04" vaporized=""/>
    <tripinfo id="left_35" depart="141.00" departLane="52o_0" departPos="5.10" departSpeed="0.00" departDelay="3.00" arrival="359.00" arrivalLane="51i_0" arrivalPos="10.00" arrivalSpeed="11.62" duration="218.00" routeLength="1015.10" waitingTime="98.00" waitingCount="3" stopTime="0.00" timeLoss="142.45" rerouteNo="0" devices="tripinfo_left_35" vType="typeWE" speedFactor="1.02" vaporized=""/>
    <tripinfo id="left_37" depart="147.00" departLane="52o_0" departPos="5.10" departSpeed="0.00" departDelay="5.00" arrival="360.00" arrivalLane="51i_0" arrivalPos="10.00" arrivalSpeed="11.46" duration="213.00" routeLength="1015.10" waitingTime="92.00" waitingCount="3" stopTime="0.00" timeLoss="143.95" rerouteNo="0" devices="tripinfo_left_37" vType="typeWE" speedFactor="1.18" vaporized=""/>
    <tripinfo id="right_44" depart="172.00" departLane="51o_0" departPos="5.10" departSpeed="0.00" departDelay="4.00" arrival="360.00" arrivalLane="52i_0" arrivalPos="10.00" arrivalSpeed="11.77" duration="188.00" routeLength="1015.10" waitingTime="74.00" waitingCount="2" stopTime="0.00" timeLoss="113.43" rerouteNo="0" devices="tripinfo_right_44" vType="typeWE" speedFactor="1.04" vaporized=""/>
    <tripinfo id="left_39" depart="153.00" departLane="52o_0" departPos="5.10" departSpeed="0.00" departDelay="0.00" arrival="367.00" arrivalLane="51i_0" arrivalPos="10.00" arrivalSpeed="10.21" duration="214.00" routeLength="1015.10" waitingTime="87.00" waitingCount="3" stopTime="0.00" timeLoss="133.24" rerouteNo="0" devices="tripinfo_left_39" vType="typeWE" speedFactor="0.90" vaporized=""/>
    <tripinfo id="left_40" depart="158.00" departLane="52o_0" departPos="5.10" departSpeed="0.00" departDelay="2.00" arrival="369.00" arrivalLane="51i_0" arrivalPos="10.00" arrivalSpeed="10.69" duration="211.00" routeLength="1015.10" waitingTime="84.00" waitingCount="3" stopTime="0.00" timeLoss="136.32" rerouteNo="0" devices="tripinfo_left_40" vType="typeWE" speedFactor="1.03" vaporized=""/>
    <tripinfo id="right_48" depart="177.00" departLane="51o_0" departPos="5.10" departSpeed="0.00" departDelay="1.00" arrival="369.00" arrivalLane="52i_0" arrivalPos="10.00" arrivalSpeed="10.19" duration="192.00" routeLength="1015.10" waitingTime="73.00" waitingCount="2" stopTime="0.00" timeLoss="109.36" rerouteNo="0" devices="tripinfo_right_48" vType="typeWE" speedFactor="0.88" vaporized=""/>
    <tripinfo id="left_41" depart="163.00" departLane="52o_0" departPos="5.10" departSpeed="0.00" departDelay="3.00" arrival="371.00" arrivalLane="51i_0" arrivalPos="10.00" arrivalSpeed="11.17" duration="208.00" routeLength="1015.10" waitingTime="79.00" waitingCount="4" stopTime="0.00" timeLoss="129.82" rerouteNo="0" devices="tripinfo_left_41" vType="typeWE" speedFactor="0.96" vaporized=""/>
    <tripinfo id="left_42" depart="169.00" departLane="52o_0" departPos="5.10" departSpeed="0.00" departDelay="5.00" arrival="373.00" arrivalLane="51i_0" arrivalPos="10.00" arrivalSpeed="11.33" duration="204.00" routeLength="1015.10" waitingTime="74.00" waitingCount="3" stopTime="0.00" timeLoss="131.43" rerouteNo="0" devices="tripinfo_left_42" vType="typeWE" speedFactor="1.09" vaporized=""/>
    <tripinfo id="right_49" depart="182.00" departLane="51o_0" departPos="5.10" departSpeed="0.00" departDelay="1.00" arrival="373.00" arrivalLane="52i_0" arrivalPos="10.00" arrivalSpeed="10.13" duration="191.00" routeLength="1015.10" waitingTime="68.00" waitingCount="2" stopTime="0.00" timeLoss="105.97" rerouteNo="0" devices="tripinfo_right_49" vType="typeWE" speedFactor="0.85" vaporized=""/>
    <tripinfo id="right_50" depart="187.00" departLane="51o_0" departPos="5.10" departSpeed="0.00" departDelay="4.00" arrival="374.00" arrivalLane="52i_0" arrivalPos="10.00" arrivalSpeed="10.03" duration="187.00" routeLength="1015.10" waitingTime="64.00" waitingCount="2" stopTime="0.00" timeLoss="103.44" rerouteNo="0" devices="tripinfo_right_50" vType="typeWE" speedFactor="0.85" vaporized=""/>
    <tripinfo id="down_68" depart="283.00" departLane="54o_0" departPos="7.10" departSpeed="0.00" departDelay="0.00" arrival="375.00" arrivalLane="53i_0" arrivalPos="10.00" arrivalSpeed="12.01" duration="92.00" routeLength="1013.10" waitingTime="0.00" waitingCount="0" stopTime="0.00" timeLoss="22.91" rerouteNo="0" devices="tripinfo_down_68" vType="typeNS" speedFactor="1.04" vaporized=""/>
    <tripinfo id="down_74" depart="302.00" departLane="54o_0" departPos="7.10" departSpeed="0.00" departDelay="0.00" arrival="394.00" arrivalLane="53i_0" arrivalPos="10.00" arrivalSpeed="10.99" duration="92.00" routeLength="1013.10" waitingTime="0.00" waitingCount="0" stopTime="0.00" timeLoss="16.79" rerouteNo="0" devices="tripinfo_down_74" vType="typeNS" speedFactor="0.96" vaporized=""/>
    <tripinfo id="down_75" depart="318.00" departLane="54o_0" departPos="7.10" departSpeed="0.00" departDelay="0.00" arrival="406.00" arrivalLane="53i_0" arrivalPos="10.00" arrivalSpeed="10.89" duration="88.00" routeLength="1013.10" waitingTime="0.00" waitingCount="0" stopTime="0.00" timeLoss="15.41" rerouteNo="0" devices="tripinfo_down_75" vType="typeNS" speedFactor="0.98" vaporized=""/>
</tripinfos>
