<?xml version="1.0" encoding="UTF-8"?>

<!-- generated on Tue Dec  3 19:44:32 2019 by Eclipse SUMO GUI Version 1.3.1
<configuration xmlns:xsi="http://www.w3.org/2001/XMLSchema-instance" xsi:noNamespaceSchemaLocation="http://sumo.dlr.de/xsd/sumoConfiguration.xsd">

    <input>
        <net-file value="std_crossroad.net.xml"/>
        <route-files value="std_crossroad.rou.xml,std_crossroad.ped.xml"/>
        <additional-files value="std_crossroad.det.xml"/>
    </input>

    <output>
        <tripinfo-output value="tripinfo.xml"/>
    </output>

    <report>
        <verbose value="true"/>
        <no-step-log value="true"/>
    </report>

    <traci_server>
        <remote-port value="52257"/>
    </traci_server>

    <gui_only>
        <gui-settings-file value="viewsettings.xml"/>
    </gui_only>

</configuration>
-->

<tripinfos xmlns:xsi="http://www.w3.org/2001/XMLSchema-instance" xsi:noNamespaceSchemaLocation="http://sumo.dlr.de/xsd/tripinfo_file.xsd">
    <tripinfo id="6" depart="10.00" departLane="WC_1" departPos="5.10" departSpeed="0.00" departDelay="0.00" arrival="31.00" arrivalLane="CS_1" arrivalPos="86.40" arrivalSpeed="12.15" duration="21.00" routeLength="176.73" waitingTime="0.00" waitingCount="0" stopTime="0.00" timeLoss="5.95" rerouteNo="0" devices="tripinfo_6 routing_6" vType="DEFAULT_VEHTYPE" speedFactor="0.94" vaporized=""/>
    <tripinfo id="15" depart="17.00" departLane="SC_1" departPos="5.10" departSpeed="0.00" departDelay="0.00" arrival="37.00" arrivalLane="CW_3" arrivalPos="86.40" arrivalSpeed="12.34" duration="20.00" routeLength="192.21" waitingTime="0.00" waitingCount="0" stopTime="0.00" timeLoss="4.75" rerouteNo="0" devices="tripinfo_15 routing_15" vType="DEFAULT_VEHTYPE" speedFactor="0.94" vaporized=""/>
    <tripinfo id="16" depart="18.00" departLane="SC_1" departPos="5.10" departSpeed="0.00" departDelay="0.00" arrival="41.00" arrivalLane="CW_3" arrivalPos="86.40" arrivalSpeed="12.15" duration="23.00" routeLength="192.21" waitingTime="0.00" waitingCount="0" stopTime="0.00" timeLoss="7.03" rerouteNo="0" devices="tripinfo_16 routing_16" vType="DEFAULT_VEHTYPE" speedFactor="0.94" vaporized=""/>
    <personinfo id="ped1" depart="30.00" type="DEFAULT_PEDTYPE">
        <walk depart="30.00" departPos="36.04" arrival="107.00" arrivalPos="50.55" duration="77.00" routeLength="93.10" timeLoss="9.62" maxSpeed="1.38"/>
    </personinfo>
    <personinfo id="ped0" depart="4.00" type="DEFAULT_PEDTYPE">
        <walk depart="4.00" departPos="42.46" arrival="153.00" arrivalPos="4.55" duration="149.00" routeLength="173.88" timeLoss="25.10" maxSpeed="1.40"/>
    </personinfo>
    <personinfo id="ped4" depart="95.00" type="DEFAULT_PEDTYPE">
        <walk depart="95.00" departPos="49.56" arrival="162.00" arrivalPos="87.38" duration="67.00" routeLength="73.84" timeLoss="7.97" maxSpeed="1.25"/>
    </personinfo>
    <personinfo id="ped7" depart="165.00" type="DEFAULT_PEDTYPE">
        <walk depart="165.00" departPos="12.20" arrival="213.00" arrivalPos="61.63" duration="48.00" routeLength="64.17" timeLoss="5.54" maxSpeed="1.51"/>
    </personinfo>
    <personinfo id="ped2" depart="70.00" type="DEFAULT_PEDTYPE">
        <walk depart="70.00" departPos="26.16" arrival="232.00" arrivalPos="2.38" duration="162.00" routeLength="192.34" timeLoss="26.18" maxSpeed="1.42"/>
    </personinfo>
    <personinfo id="ped9" depart="276.00" type="DEFAULT_PEDTYPE">
        <walk depart="276.00" departPos="73.05" arrival="314.00" arrivalPos="84.52" duration="38.00" routeLength="39.62" timeLoss="5.47" maxSpeed="1.22"/>
    </personinfo>
    <tripinfo id="0" depart="2.00" departLane="WC_1" departPos="5.10" departSpeed="0.00" departDelay="0.00" arrival="322.00" arrivalLane="CN_1" arrivalPos="100.00" arrivalSpeed="14.59" duration="320.00" routeLength="181.30" waitingTime="301.00" waitingCount="1" stopTime="0.00" timeLoss="307.87" rerouteNo="0" devices="tripinfo_0 routing_0" vType="DEFAULT_VEHTYPE" speedFactor="1.06" vaporized=""/>
    <tripinfo id="1" depart="3.00" departLane="NC_1" departPos="5.10" departSpeed="0.00" departDelay="0.00" arrival="323.00" arrivalLane="CE_1" arrivalPos="86.40" arrivalSpeed="14.86" duration="320.00" routeLength="181.30" waitingTime="301.00" waitingCount="1" stopTime="0.00" timeLoss="307.93" rerouteNo="0" devices="tripinfo_1 routing_1" vType="DEFAULT_VEHTYPE" speedFactor="1.08" vaporized=""/>
    <tripinfo id="2" depart="5.00" departLane="EC_1" departPos="5.10" departSpeed="0.00" departDelay="0.00" arrival="324.00" arrivalLane="CW_1" arrivalPos="86.40" arrivalSpeed="13.41" duration="319.00" routeLength="167.70" waitingTime="301.00" waitingCount="1" stopTime="0.00" timeLoss="306.79" rerouteNo="0" devices="tripinfo_2 routing_2" vType="DEFAULT_VEHTYPE" speedFactor="1.03" vaporized=""/>
    <tripinfo id="8" depart="12.00" departLane="EC_1" departPos="5.10" departSpeed="0.00" departDelay="0.00" arrival="331.00" arrivalLane="CN_1" arrivalPos="100.00" arrivalSpeed="14.70" duration="319.00" routeLength="181.30" waitingTime="301.00" waitingCount="1" stopTime="0.00" timeLoss="306.99" rerouteNo="0" devices="tripinfo_8 routing_8" vType="DEFAULT_VEHTYPE" speedFactor="1.09" vaporized=""/>
    <tripinfo id="7" depart="10.00" departLane="NC_1" departPos="5.10" departSpeed="0.00" departDelay="0.00" arrival="333.00" arrivalLane="CW_1" arrivalPos="86.40" arrivalSpeed="11.06" duration="323.00" routeLength="181.30" waitingTime="301.00" waitingCount="1" stopTime="0.00" timeLoss="307.62" rerouteNo="0" devices="tripinfo_7 routing_7" vType="DEFAULT_VEHTYPE" speedFactor="0.86" vaporized=""/>
    <tripinfo id="11" depart="14.00" departLane="SC_1" departPos="5.10" departSpeed="0.00" departDelay="0.00" arrival="333.00" arrivalLane="CE_1" arrivalPos="86.40" arrivalSpeed="14.78" duration="319.00" routeLength="167.70" waitingTime="301.00" waitingCount="1" stopTime="0.00" timeLoss="308.11" rerouteNo="0" devices="tripinfo_11 routing_11" vType="DEFAULT_VEHTYPE" speedFactor="1.12" vaporized=""/>
    <tripinfo id="21" depart="22.00" departLane="NC_1" departPos="5.10" departSpeed="0.00" departDelay="0.00" arrival="343.00" arrivalLane="CS_1" arrivalPos="86.40" arrivalSpeed="11.22" duration="321.00" routeLength="181.30" waitingTime="301.00" waitingCount="1" stopTime="0.00" timeLoss="306.70" rerouteNo="0" devices="tripinfo_21 routing_21" vType="DEFAULT_VEHTYPE" speedFactor="0.89" vaporized=""/>
    <tripinfo id="26" depart="29.00" departLane="EC_1" departPos="5.10" departSpeed="0.00" departDelay="2.00" arrival="349.00" arrivalLane="CS_1" arrivalPos="86.40" arrivalSpeed="15.21" duration="320.00" routeLength="167.70" waitingTime="301.00" waitingCount="1" stopTime="0.00" timeLoss="309.19" rerouteNo="0" devices="tripinfo_26 routing_26" vType="DEFAULT_VEHTYPE" speedFactor="1.13" vaporized=""/>
    <personinfo id="ped8" depart="250.00" type="DEFAULT_PEDTYPE">
        <walk depart="250.00" departPos="3.68" arrival="390.00" arrivalPos="48.00" duration="140.00" routeLength="157.92" timeLoss="13.73" maxSpeed="1.25"/>
    </personinfo>
    <personinfo id="ped10" depart="340.00" type="DEFAULT_PEDTYPE">
        <walk depart="340.00" departPos="50.90" arrival="443.00" arrivalPos="37.23" duration="103.00" routeLength="109.06" timeLoss="11.15" maxSpeed="1.19"/>
    </personinfo>
    <personinfo id="ped6" depart="114.00" type="DEFAULT_PEDTYPE">
        <walk depart="114.00" departPos="24.30" arrival="485.00" arrivalPos="67.48" duration="371.00" routeLength="64.42" timeLoss="326.31" maxSpeed="1.44"/>
    </personinfo>
    <personinfo id="ped3" depart="89.00" type="DEFAULT_PEDTYPE">
        <walk depart="89.00" departPos="36.73" arrival="488.00" arrivalPos="42.57" duration="399.00" routeLength="127.99" timeLoss="320.88" maxSpeed="1.64"/>
    </personinfo>
    <personinfo id="ped12" depart="481.00" type="DEFAULT_PEDTYPE">
        <walk depart="481.00" departPos="64.11" arrival="541.00" arrivalPos="74.01" duration="60.00" routeLength="72.67" timeLoss="7.84" maxSpeed="1.39"/>
    </personinfo>
    <personinfo id="ped13" depart="520.00" type="DEFAULT_PEDTYPE">
        <walk depart="520.00" departPos="76.65" arrival="601.00" arrivalPos="84.75" duration="81.00" routeLength="99.50" timeLoss="9.07" maxSpeed="1.38"/>
    </personinfo>
    <personinfo id="ped14" depart="544.00" type="DEFAULT_PEDTYPE">
        <walk depart="544.00" departPos="29.88" arrival="614.00" arrivalPos="14.47" duration="70.00" routeLength="98.19" timeLoss="8.12" maxSpeed="1.59"/>
    </personinfo>
    <tripinfo id="13" depart="18.00" departLane="EC_1" departPos="5.10" departSpeed="0.00" departDelay="2.00" arrival="628.00" arrivalLane="CW_1" arrivalPos="86.40" arrivalSpeed="11.81" duration="610.00" routeLength="167.70" waitingTime="588.00" waitingCount="2" stopTime="0.00" timeLoss="597.06" rerouteNo="0" devices="tripinfo_13 routing_13" vType="DEFAULT_VEHTYPE" speedFactor="0.93" vaporized=""/>
    <tripinfo id="17" depart="19.00" departLane="NC_1" departPos="5.10" departSpeed="0.00" departDelay="1.00" arrival="628.00" arrivalLane="CE_1" arrivalPos="86.40" arrivalSpeed="15.87" duration="609.00" routeLength="181.30" waitingTime="586.00" waitingCount="2" stopTime="0.00" timeLoss="597.31" rerouteNo="0" devices="tripinfo_17 routing_17" vType="DEFAULT_VEHTYPE" speedFactor="1.16" vaporized=""/>
    <tripinfo id="14" depart="17.00" departLane="WC_1" departPos="5.10" departSpeed="0.00" departDelay="0.00" arrival="629.00" arrivalLane="CN_1" arrivalPos="100.00" arrivalSpeed="11.49" duration="612.00" routeLength="181.30" waitingTime="587.00" waitingCount="2" stopTime="0.00" timeLoss="596.89" rerouteNo="0" devices="tripinfo_14 routing_14" vType="DEFAULT_VEHTYPE" speedFactor="0.88" vaporized=""/>
    <tripinfo id="5" depart="8.00" departLane="WC_1" departPos="5.10" departSpeed="0.00" departDelay="0.00" arrival="632.00" arrivalLane="CE_2" arrivalPos="86.40" arrivalSpeed="12.21" duration="624.00" routeLength="167.70" waitingTime="601.00" waitingCount="2" stopTime="0.00" timeLoss="610.80" rerouteNo="0" devices="tripinfo_5 routing_5" vType="DEFAULT_VEHTYPE" speedFactor="0.89" vaporized=""/>
    <tripinfo id="9" depart="15.00" departLane="EC_1" departPos="5.10" departSpeed="0.00" departDelay="3.00" arrival="636.00" arrivalLane="CN_2" arrivalPos="100.00" arrivalSpeed="13.71" duration="621.00" routeLength="181.30" waitingTime="599.00" waitingCount="2" stopTime="0.00" timeLoss="607.82" rerouteNo="0" devices="tripinfo_9 routing_9" vType="DEFAULT_VEHTYPE" speedFactor="1.03" vaporized=""/>
    <tripinfo id="12" depart="16.00" departLane="NC_1" departPos="5.10" departSpeed="0.00" departDelay="0.00" arrival="637.00" arrivalLane="CW_1" arrivalPos="86.40" arrivalSpeed="12.47" duration="621.00" routeLength="181.30" waitingTime="598.00" waitingCount="2" stopTime="0.00" timeLoss="607.63" rerouteNo="0" devices="tripinfo_12 routing_12" vType="DEFAULT_VEHTYPE" speedFactor="0.99" vaporized=""/>
    <tripinfo id="3" depart="5.00" departLane="SC_1" departPos="5.10" departSpeed="0.00" departDelay="0.00" arrival="653.00" arrivalLane="CS_1" arrivalPos="86.40" arrivalSpeed="10.97" duration="648.00" routeLength="372.37" waitingTime="602.00" waitingCount="2" stopTime="0.00" timeLoss="615.17" rerouteNo="1" devices="tripinfo_3 routing_3" vType="DEFAULT_VEHTYPE" speedFactor="0.83" vaporized=""/>
    <tripinfo id="28" depart="32.00" departLane="EC_1" departPos="5.10" departSpeed="0.00" departDelay="4.00" arrival="655.00" arrivalLane="CS_2" arrivalPos="86.40" arrivalSpeed="15.10" duration="623.00" routeLength="167.70" waitingTime="599.00" waitingCount="2" stopTime="0.00" timeLoss="612.41" rerouteNo="0" devices="tripinfo_28 routing_28" vType="DEFAULT_VEHTYPE" speedFactor="1.18" vaporized=""/>
    <personinfo id="ped17" depart="627.00" type="DEFAULT_PEDTYPE">
        <walk depart="627.00" departPos="85.13" arrival="662.00" arrivalPos="11.43" duration="35.00" routeLength="47.50" timeLoss="4.44" maxSpeed="1.55"/>
    </personinfo>
    <personinfo id="ped21" depart="731.00" type="DEFAULT_PEDTYPE">
        <walk depart="731.00" departPos="13.62" arrival="761.00" arrivalPos="80.17" duration="30.00" routeLength="37.69" timeLoss="3.45" maxSpeed="1.42"/>
    </personinfo>
    <personinfo id="ped11" depart="443.00" type="DEFAULT_PEDTYPE">
        <walk depart="443.00" departPos="51.21" arrival="835.00" arrivalPos="58.83" duration="392.00" routeLength="97.25" timeLoss="323.13" maxSpeed="1.41"/>
    </personinfo>
    <personinfo id="ped19" depart="673.00" type="DEFAULT_PEDTYPE">
        <walk depart="673.00" departPos="20.75" arrival="842.00" arrivalPos="28.76" duration="169.00" routeLength="171.38" timeLoss="29.15" maxSpeed="1.23"/>
    </personinfo>
    <personinfo id="ped5" depart="102.00" type="DEFAULT_PEDTYPE">
        <walk depart="102.00" departPos="10.15" arrival="862.00" arrivalPos="60.44" duration="760.00" routeLength="70.34" timeLoss="707.09" maxSpeed="1.33"/>
    </personinfo>
    <personinfo id="ped24" depart="861.00" type="DEFAULT_PEDTYPE">
        <walk depart="861.00" departPos="73.51" arrival="908.00" arrivalPos="21.64" duration="47.00" routeLength="55.74" timeLoss="6.25" maxSpeed="1.37"/>
    </personinfo>
    <tripinfo id="30" depart="29.00" departLane="WC_1" departPos="5.10" departSpeed="0.00" departDelay="0.00" arrival="932.00" arrivalLane="CN_1" arrivalPos="100.00" arrivalSpeed="13.77" duration="903.00" routeLength="181.30" waitingTime="877.00" waitingCount="3" stopTime="0.00" timeLoss="889.58" rerouteNo="0" devices="tripinfo_30 routing_30" vType="DEFAULT_VEHTYPE" speedFactor="1.01" vaporized=""/>
    <tripinfo id="18" depart="20.00" departLane="EC_1" departPos="5.10" departSpeed="0.00" departDelay="2.00" arrival="942.00" arrivalLane="CN_1" arrivalPos="100.00" arrivalSpeed="13.63" duration="922.00" routeLength="181.30" waitingTime="894.00" waitingCount="3" stopTime="0.00" timeLoss="908.71" rerouteNo="0" devices="tripinfo_18 routing_18" vType="DEFAULT_VEHTYPE" speedFactor="1.02" vaporized=""/>
    <tripinfo id="24" depart="26.00" departLane="NC_1" departPos="5.10" departSpeed="0.00" departDelay="0.00" arrival="942.00" arrivalLane="CW_1" arrivalPos="86.40" arrivalSpeed="11.78" duration="916.00" routeLength="181.30" waitingTime="889.00" waitingCount="3" stopTime="0.00" timeLoss="902.02" rerouteNo="0" devices="tripinfo_24 routing_24" vType="DEFAULT_VEHTYPE" speedFactor="0.92" vaporized=""/>
    <personinfo id="ped25" depart="931.00" type="DEFAULT_PEDTYPE">
        <walk depart="931.00" departPos="81.28" arrival="955.00" arrivalPos="20.60" duration="24.00" routeLength="29.97" timeLoss="3.10" maxSpeed="1.43"/>
    </personinfo>
    <tripinfo id="19" depart="19.00" departLane="SC_1" departPos="5.10" departSpeed="0.00" departDelay="0.00" arrival="957.00" arrivalLane="CS_1" arrivalPos="86.40" arrivalSpeed="12.84" duration="938.00" routeLength="372.37" waitingTime="891.00" waitingCount="3" stopTime="0.00" timeLoss="910.74" rerouteNo="1" devices="tripinfo_19 routing_19" vType="DEFAULT_VEHTYPE" speedFactor="1.01" vaporized=""/>
    <personinfo id="ped26" depart="941.00" type="DEFAULT_PEDTYPE">
        <walk depart="941.00" departPos="8.46" arrival="1044.00" arrivalPos="34.85" duration="103.00" routeLength="130.63" timeLoss="9.63" maxSpeed="1.40"/>
    </personinfo>
    <personinfo id="ped15" depart="616.00" type="DEFAULT_PEDTYPE">
        <walk depart="616.00" departPos="0.07" arrival="1078.00" arrivalPos="33.89" duration="462.00" routeLength="200.99" timeLoss="320.62" maxSpeed="1.42"/>
    </personinfo>
    <personinfo id="ped27" depart="997.00" type="DEFAULT_PEDTYPE">
        <walk depart="997.00" departPos="64.03" arrival="1081.00" arrivalPos="64.76" duration="84.00" routeLength="106.87" timeLoss="9.62" maxSpeed="1.44"/>
    </personinfo>
    <personinfo id="ped30" depart="1100.00" type="DEFAULT_PEDTYPE">
        <walk depart="1100.00" departPos="98.23" arrival="1119.00" arrivalPos="16.47" duration="19.00" routeLength="22.48" timeLoss="2.42" maxSpeed="1.36"/>
    </personinfo>
    <personinfo id="ped18" depart="672.00" type="DEFAULT_PEDTYPE">
        <walk depart="672.00" departPos="42.12" arrival="1143.00" arrivalPos="86.12" duration="471.00" routeLength="63.60" timeLoss="424.61" maxSpeed="1.37"/>
    </personinfo>
    <personinfo id="ped20" depart="715.00" type="DEFAULT_PEDTYPE">
        <walk depart="715.00" departPos="62.48" arrival="1159.00" arrivalPos="32.34" duration="444.00" routeLength="90.49" timeLoss="372.76" maxSpeed="1.27"/>
    </personinfo>
    <tripinfo id="20" depart="23.00" departLane="EC_1" departPos="5.10" departSpeed="0.00" departDelay="2.00" arrival="1248.00" arrivalLane="CN_1" arrivalPos="100.00" arrivalSpeed="13.53" duration="1225.00" routeLength="181.30" waitingTime="1189.00" waitingCount="4" stopTime="0.00" timeLoss="1211.36" rerouteNo="0" devices="tripinfo_20 routing_20" vType="DEFAULT_VEHTYPE" speedFactor="0.98" vaporized=""/>
    <tripinfo id="27" depart="29.00" departLane="NC_1" departPos="5.10" departSpeed="0.00" departDelay="2.00" arrival="1248.00" arrivalLane="CW_1" arrivalPos="86.40" arrivalSpeed="12.03" duration="1219.00" routeLength="181.30" waitingTime="1184.00" waitingCount="4" stopTime="0.00" timeLoss="1205.09" rerouteNo="0" devices="tripinfo_27 routing_27" vType="DEFAULT_VEHTYPE" speedFactor="0.93" vaporized=""/>
    <personinfo id="ped16" depart="622.00" type="DEFAULT_PEDTYPE">
        <walk depart="622.00" departPos="42.03" arrival="1252.00" arrivalPos="1.17" duration="630.00" routeLength="79.76" timeLoss="576.94" maxSpeed="1.50"/>
    </personinfo>
    <personinfo id="ped23" depart="834.00" type="DEFAULT_PEDTYPE">
        <walk depart="834.00" departPos="19.53" arrival="1267.00" arrivalPos="19.68" duration="433.00" routeLength="171.57" timeLoss="315.98" maxSpeed="1.47"/>
    </personinfo>
    <personinfo id="ped32" depart="1227.00" type="DEFAULT_PEDTYPE">
        <walk depart="1227.00" departPos="81.39" arrival="1363.00" arrivalPos="54.57" duration="136.00" routeLength="161.05" timeLoss="22.54" maxSpeed="1.42"/>
    </personinfo>
    <personinfo id="ped22" depart="811.00" type="DEFAULT_PEDTYPE">
        <walk depart="811.00" departPos="9.91" arrival="1378.00" arrivalPos="68.21" duration="567.00" routeLength="49.29" timeLoss="530.52" maxSpeed="1.35"/>
    </personinfo>
    <personinfo id="ped28" depart="1003.00" type="DEFAULT_PEDTYPE">
        <walk depart="1003.00" departPos="0.73" arrival="1386.00" arrivalPos="39.37" duration="383.00" routeLength="81.98" timeLoss="324.95" maxSpeed="1.41"/>
    </personinfo>
    <personinfo id="ped35" depart="1281.00" type="DEFAULT_PEDTYPE">
        <walk depart="1281.00" departPos="26.77" arrival="1401.00" arrivalPos="71.56" duration="120.00" routeLength="158.38" timeLoss="12.10" maxSpeed="1.47"/>
    </personinfo>
    <personinfo id="ped38" depart="1377.00" type="DEFAULT_PEDTYPE">
        <walk depart="1377.00" departPos="68.69" arrival="1410.00" arrivalPos="3.42" duration="33.00" routeLength="42.33" timeLoss="5.83" maxSpeed="1.56"/>
    </personinfo>
    <personinfo id="ped29" depart="1065.00" type="DEFAULT_PEDTYPE">
        <walk depart="1065.00" departPos="68.50" arrival="1485.00" arrivalPos="37.18" duration="420.00" routeLength="144.93" timeLoss="329.09" maxSpeed="1.59"/>
    </personinfo>
    <personinfo id="ped41" depart="1461.00" type="DEFAULT_PEDTYPE">
        <walk depart="1461.00" departPos="13.27" arrival="1532.00" arrivalPos="25.35" duration="71.00" routeLength="78.56" timeLoss="7.73" maxSpeed="1.24"/>
    </personinfo>
    <tripinfo id="29" depart="33.00" departLane="EC_1" departPos="5.10" departSpeed="0.00" departDelay="4.00" arrival="1543.00" arrivalLane="CW_1" arrivalPos="86.40" arrivalSpeed="15.32" duration="1510.00" routeLength="167.70" waitingTime="1474.00" waitingCount="5" stopTime="0.00" timeLoss="1499.21" rerouteNo="0" devices="tripinfo_29 routing_29" vType="DEFAULT_VEHTYPE" speedFactor="1.15" vaporized=""/>
    <tripinfo id="23" depart="26.00" departLane="EC_1" departPos="5.10" departSpeed="0.00" departDelay="2.00" arrival="1546.00" arrivalLane="CE_1" arrivalPos="86.40" arrivalSpeed="11.28" duration="1520.00" routeLength="345.17" waitingTime="1469.00" waitingCount="5" stopTime="0.00" timeLoss="1490.50" rerouteNo="1" devices="tripinfo_23 routing_23" vType="DEFAULT_VEHTYPE" speedFactor="0.87" vaporized=""/>
    <personinfo id="ped34" depart="1250.00" type="DEFAULT_PEDTYPE">
        <walk depart="1250.00" departPos="38.62" arrival="1684.00" arrivalPos="26.43" duration="434.00" routeLength="145.74" timeLoss="320.12" maxSpeed="1.28"/>
    </personinfo>
    <personinfo id="ped33" depart="1231.00" type="DEFAULT_PEDTYPE">
        <walk depart="1231.00" departPos="23.10" arrival="1698.00" arrivalPos="79.11" duration="467.00" routeLength="183.21" timeLoss="319.08" maxSpeed="1.24"/>
    </personinfo>
    <personinfo id="ped43" depart="1652.00" type="DEFAULT_PEDTYPE">
        <walk depart="1652.00" departPos="63.88" arrival="1709.00" arrivalPos="91.68" duration="57.00" routeLength="76.44" timeLoss="5.31" maxSpeed="1.48"/>
    </personinfo>
    <tripinfo id="4" depart="6.00" departLane="WC_1" departPos="5.10" departSpeed="0.00" departDelay="0.00" arrival="1848.00" arrivalLane="CW_1" arrivalPos="86.40" arrivalSpeed="14.11" duration="1842.00" routeLength="345.17" waitingTime="1784.00" waitingCount="6" stopTime="0.00" timeLoss="1818.40" rerouteNo="1" devices="tripinfo_4 routing_4" vType="DEFAULT_VEHTYPE" speedFactor="1.05" vaporized=""/>
    <personinfo id="ped48" depart="1819.00" type="DEFAULT_PEDTYPE">
        <walk depart="1819.00" departPos="84.19" arrival="1851.00" arrivalPos="32.75" duration="32.00" routeLength="39.20" timeLoss="3.90" maxSpeed="1.39"/>
    </personinfo>
    <tripinfo id="25" depart="28.00" departLane="EC_1" departPos="5.10" departSpeed="0.00" departDelay="2.00" arrival="1851.00" arrivalLane="CE_1" arrivalPos="86.40" arrivalSpeed="11.92" duration="1823.00" routeLength="345.17" waitingTime="1764.00" waitingCount="6" stopTime="0.00" timeLoss="1796.19" rerouteNo="1" devices="tripinfo_25 routing_25" vType="DEFAULT_VEHTYPE" speedFactor="0.95" vaporized=""/>
    <personinfo id="ped47" depart="1791.00" type="DEFAULT_PEDTYPE">
        <walk depart="1791.00" departPos="26.19" arrival="1860.00" arrivalPos="35.15" duration="69.00" routeLength="98.64" timeLoss="8.67" maxSpeed="1.63"/>
    </personinfo>
    <personinfo id="ped40" depart="1439.00" type="DEFAULT_PEDTYPE">
        <walk depart="1439.00" departPos="38.49" arrival="1863.00" arrivalPos="41.39" duration="424.00" routeLength="130.91" timeLoss="326.65" maxSpeed="1.34"/>
    </personinfo>
    <personinfo id="ped37" depart="1373.00" type="DEFAULT_PEDTYPE">
        <walk depart="1373.00" departPos="3.15" arrival="1883.00" arrivalPos="2.72" duration="510.00" routeLength="204.91" timeLoss="347.24" maxSpeed="1.26"/>
    </personinfo>
    <personinfo id="ped31" depart="1210.00" type="DEFAULT_PEDTYPE">
        <walk depart="1210.00" departPos="1.01" arrival="1884.00" arrivalPos="52.83" duration="674.00" routeLength="172.45" timeLoss="554.93" maxSpeed="1.45"/>
    </personinfo>
    <personinfo id="ped44" depart="1761.00" type="DEFAULT_PEDTYPE">
        <walk depart="1761.00" departPos="49.81" arrival="1921.00" arrivalPos="2.30" duration="160.00" routeLength="168.13" timeLoss="29.52" maxSpeed="1.29"/>
    </personinfo>
    <personinfo id="ped49" depart="1901.00" type="DEFAULT_PEDTYPE">
        <walk depart="1901.00" departPos="82.74" arrival="1935.00" arrivalPos="36.96" duration="34.00" routeLength="44.86" timeLoss="3.84" maxSpeed="1.49"/>
    </personinfo>
    <personinfo id="ped50" depart="1927.00" type="DEFAULT_PEDTYPE">
        <walk depart="1927.00" departPos="73.64" arrival="1948.00" arrivalPos="6.77" duration="21.00" routeLength="23.77" timeLoss="2.82" maxSpeed="1.31"/>
    </personinfo>
    <personinfo id="ped51" depart="1958.00" type="DEFAULT_PEDTYPE">
        <walk depart="1958.00" departPos="60.88" arrival="2066.00" arrivalPos="68.27" duration="108.00" routeLength="126.83" timeLoss="19.46" maxSpeed="1.43"/>
    </personinfo>
    <personinfo id="ped52" depart="1997.00" type="DEFAULT_PEDTYPE">
        <walk depart="1997.00" departPos="77.74" arrival="2071.00" arrivalPos="65.80" duration="74.00" routeLength="95.66" timeLoss="9.07" maxSpeed="1.47"/>
    </personinfo>
    <personinfo id="ped53" depart="2038.00" type="DEFAULT_PEDTYPE">
        <walk depart="2038.00" departPos="32.89" arrival="2088.00" arrivalPos="58.67" duration="50.00" routeLength="64.86" timeLoss="4.76" maxSpeed="1.43"/>
    </personinfo>
    <personinfo id="ped42" depart="1627.00" type="DEFAULT_PEDTYPE">
        <walk depart="1627.00" departPos="20.87" arrival="2102.00" arrivalPos="65.31" duration="475.00" routeLength="124.61" timeLoss="386.52" maxSpeed="1.41"/>
    </personinfo>
    <personinfo id="ped46" depart="1770.00" type="DEFAULT_PEDTYPE">
        <walk depart="1770.00" departPos="20.79" arrival="2110.00" arrivalPos="79.99" duration="340.00" routeLength="48.40" timeLoss="308.22" maxSpeed="1.52"/>
    </personinfo>
    <personinfo id="ped39" depart="1399.00" type="DEFAULT_PEDTYPE">
        <walk depart="1399.00" departPos="41.15" arrival="2126.00" arrivalPos="43.80" duration="727.00" routeLength="116.25" timeLoss="648.41" maxSpeed="1.48"/>
    </personinfo>
    <tripinfo id="10" depart="13.00" departLane="WC_1" departPos="5.10" departSpeed="0.00" departDelay="0.00" arrival="2153.00" arrivalLane="CW_1" arrivalPos="86.40" arrivalSpeed="13.58" duration="2140.00" routeLength="345.17" waitingTime="2080.00" waitingCount="7" stopTime="0.00" timeLoss="2116.37" rerouteNo="1" devices="tripinfo_10 routing_10" vType="DEFAULT_VEHTYPE" speedFactor="1.05" vaporized=""/>
    <personinfo id="ped45" depart="1761.00" type="DEFAULT_PEDTYPE">
        <walk depart="1761.00" departPos="45.75" arrival="2174.00" arrivalPos="15.87" duration="413.00" routeLength="77.73" timeLoss="362.06" maxSpeed="1.53"/>
    </personinfo>
    <personinfo id="ped58" depart="2250.00" type="DEFAULT_PEDTYPE">
        <walk depart="2250.00" departPos="85.56" arrival="2347.00" arrivalPos="73.97" duration="97.00" routeLength="132.22" timeLoss="19.35" maxSpeed="1.70"/>
    </personinfo>
    <personinfo id="ped62" depart="2407.00" type="DEFAULT_PEDTYPE">
        <walk depart="2407.00" departPos="3.45" arrival="2438.00" arrivalPos="70.15" duration="31.00" routeLength="40.89" timeLoss="4.57" maxSpeed="1.55"/>
    </personinfo>
    <personinfo id="ped60" depart="2401.00" type="DEFAULT_PEDTYPE">
        <walk depart="2401.00" departPos="28.43" arrival="2446.00" arrivalPos="63.30" duration="45.00" routeLength="55.78" timeLoss="5.44" maxSpeed="1.41"/>
    </personinfo>
    <personinfo id="ped61" depart="2407.00" type="DEFAULT_PEDTYPE">
        <walk depart="2407.00" departPos="1.24" arrival="2449.00" arrivalPos="57.02" duration="42.00" routeLength="48.46" timeLoss="5.41" maxSpeed="1.32"/>
    </personinfo>
    <tripinfo id="22" depart="24.00" departLane="WC_1" departPos="5.10" departSpeed="0.00" departDelay="0.00" arrival="2460.00" arrivalLane="CW_1" arrivalPos="86.40" arrivalSpeed="10.17" duration="2436.00" routeLength="345.17" waitingTime="2369.00" waitingCount="8" stopTime="0.00" timeLoss="2405.94" rerouteNo="1" devices="tripinfo_22 routing_22" vType="DEFAULT_VEHTYPE" speedFactor="0.83" vaporized=""/>
    <personinfo id="ped36" depart="1348.00" type="DEFAULT_PEDTYPE">
        <walk depart="1348.00" departPos="18.29" arrival="2473.00" arrivalPos="1.15" duration="1125.00" routeLength="177.74" timeLoss="998.27" maxSpeed="1.40"/>
    </personinfo>
    <personinfo id="ped55" depart="2136.00" type="DEFAULT_PEDTYPE">
        <walk depart="2136.00" departPos="84.20" arrival="2555.00" arrivalPos="77.82" duration="419.00" routeLength="127.01" timeLoss="328.31" maxSpeed="1.40"/>
    </personinfo>
    <personinfo id="ped57" depart="2178.00" type="DEFAULT_PEDTYPE">
        <walk depart="2178.00" departPos="20.49" arrival="2583.00" arrivalPos="37.13" duration="405.00" routeLength="130.25" timeLoss="314.60" maxSpeed="1.44"/>
    </personinfo>
    <personinfo id="ped63" depart="2552.00" type="DEFAULT_PEDTYPE">
        <walk depart="2552.00" departPos="45.68" arrival="2646.00" arrivalPos="64.86" duration="94.00" routeLength="109.83" timeLoss="9.56" maxSpeed="1.30"/>
    </personinfo>
    <personinfo id="ped64" depart="2566.00" type="DEFAULT_PEDTYPE">
        <walk depart="2566.00" departPos="36.65" arrival="2651.00" arrivalPos="70.24" duration="85.00" routeLength="74.02" timeLoss="12.35" maxSpeed="1.02"/>
    </personinfo>
    <personinfo id="ped54" depart="2084.00" type="DEFAULT_PEDTYPE">
        <walk depart="2084.00" departPos="44.29" arrival="2692.00" arrivalPos="27.43" duration="608.00" routeLength="103.76" timeLoss="541.20" maxSpeed="1.55"/>
    </personinfo>
    <personinfo id="ped65" depart="2608.00" type="DEFAULT_PEDTYPE">
        <walk depart="2608.00" departPos="54.43" arrival="2731.00" arrivalPos="45.20" duration="123.00" routeLength="121.25" timeLoss="24.56" maxSpeed="1.23"/>
    </personinfo>
    <personinfo id="ped59" depart="2386.00" type="DEFAULT_PEDTYPE">
        <walk depart="2386.00" departPos="0.45" arrival="2736.00" arrivalPos="53.22" duration="350.00" routeLength="54.82" timeLoss="310.98" maxSpeed="1.41"/>
    </personinfo>
    <personinfo id="ped56" depart="2169.00" type="DEFAULT_PEDTYPE">
        <walk depart="2169.00" departPos="31.01" arrival="2827.00" arrivalPos="52.05" duration="658.00" routeLength="141.67" timeLoss="562.52" maxSpeed="1.48"/>
    </personinfo>
    <personinfo id="ped70" depart="2811.00" type="DEFAULT_PEDTYPE">
        <walk depart="2811.00" departPos="74.91" arrival="2842.00" arrivalPos="82.56" duration="31.00" routeLength="39.71" timeLoss="4.14" maxSpeed="1.48"/>
    </personinfo>
    <personinfo id="ped69" depart="2770.00" type="DEFAULT_PEDTYPE">
        <walk depart="2770.00" departPos="24.57" arrival="2844.00" arrivalPos="86.12" duration="74.00" routeLength="72.67" timeLoss="17.56" maxSpeed="1.29"/>
    </personinfo>