<?xml version="1.0" encoding="UTF-8"?>

<!-- generated on Tue Dec  3 21:24:57 2019 by Eclipse SUMO GUI Version 1.3.1
<configuration xmlns:xsi="http://www.w3.org/2001/XMLSchema-instance" xsi:noNamespaceSchemaLocation="http://sumo.dlr.de/xsd/sumoConfiguration.xsd">

    <input>
        <net-file value="std_crossroad.net.xml"/>
        <route-files value="std_crossroad.rou.xml,std_crossroad.ped.xml"/>
        <additional-files value="std_crossroad.det.xml"/>
    </input>

    <output>
        <tripinfo-output value="tripinfo.xml"/>
    </output>

    <report>
        <verbose value="true"/>
        <no-step-log value="true"/>
    </report>

    <traci_server>
        <remote-port value="54227"/>
    </traci_server>

    <gui_only>
        <gui-settings-file value="viewsettings.xml"/>
    </gui_only>

</configuration>
-->

<tripinfos xmlns:xsi="http://www.w3.org/2001/XMLSchema-instance" xsi:noNamespaceSchemaLocation="http://sumo.dlr.de/xsd/tripinfo_file.xsd">
    <tripinfo id="1" depart="3.00" departLane="NC_1" departPos="5.10" departSpeed="0.00" departDelay="0.00" arrival="23.00" arrivalLane="CE_3" arrivalPos="86.40" arrivalSpeed="14.14" duration="20.00" routeLength="205.81" waitingTime="0.00" waitingCount="0" stopTime="0.00" timeLoss="5.80" rerouteNo="0" devices="tripinfo_1 routing_1" vType="DEFAULT_VEHTYPE" speedFactor="1.08" vaporized=""/>
    <tripinfo id="0" depart="2.00" departLane="WC_1" departPos="5.10" departSpeed="0.00" departDelay="0.00" arrival="26.00" arrivalLane="CN_3" arrivalPos="100.00" arrivalSpeed="14.32" duration="24.00" routeLength="205.81" waitingTime="0.00" waitingCount="0" stopTime="0.00" timeLoss="9.56" rerouteNo="0" devices="tripinfo_0 routing_0" vType="DEFAULT_VEHTYPE" speedFactor="1.06" vaporized=""/>
    <tripinfo id="2" depart="5.00" departLane="EC_1" departPos="5.10" departSpeed="0.00" departDelay="0.00" arrival="30.00" arrivalLane="CW_2" arrivalPos="86.40" arrivalSpeed="13.98" duration="25.00" routeLength="194.90" waitingTime="3.00" waitingCount="1" stopTime="0.00" timeLoss="11.06" rerouteNo="0" devices="tripinfo_2 routing_2" vType="DEFAULT_VEHTYPE" speedFactor="1.03" vaporized=""/>
    <tripinfo id="5" depart="8.00" departLane="WC_1" departPos="5.10" departSpeed="0.00" departDelay="0.00" arrival="32.00" arrivalLane="CE_2" arrivalPos="86.40" arrivalSpeed="12.21" duration="24.00" routeLength="194.90" waitingTime="0.00" waitingCount="0" stopTime="0.00" timeLoss="8.05" rerouteNo="0" devices="tripinfo_5 routing_5" vType="DEFAULT_VEHTYPE" speedFactor="0.89" vaporized=""/>
    <tripinfo id="6" depart="10.00" departLane="WC_1" departPos="5.10" departSpeed="0.00" departDelay="0.00" arrival="32.00" arrivalLane="CS_1" arrivalPos="86.40" arrivalSpeed="12.15" duration="22.00" routeLength="176.73" waitingTime="0.00" waitingCount="0" stopTime="0.00" timeLoss="7.31" rerouteNo="0" devices="tripinfo_6 routing_6" vType="DEFAULT_VEHTYPE" speedFactor="0.94" vaporized=""/>
    <tripinfo id="8" depart="12.00" departLane="EC_1" departPos="5.10" departSpeed="0.00" departDelay="0.00" arrival="32.00" arrivalLane="CN_1" arrivalPos="100.00" arrivalSpeed="14.80" duration="20.00" routeLength="190.33" waitingTime="0.00" waitingCount="0" stopTime="0.00" timeLoss="5.84" rerouteNo="0" devices="tripinfo_8 routing_8" vType="DEFAULT_VEHTYPE" speedFactor="1.09" vaporized=""/>
    <tripinfo id="7" depart="10.00" departLane="NC_1" departPos="5.10" departSpeed="0.00" departDelay="0.00" arrival="33.00" arrivalLane="CW_1" arrivalPos="86.40" arrivalSpeed="10.97" duration="23.00" routeLength="190.33" waitingTime="0.00" waitingCount="0" stopTime="0.00" timeLoss="5.64" rerouteNo="0" devices="tripinfo_7 routing_7" vType="DEFAULT_VEHTYPE" speedFactor="0.86" vaporized=""/>
    <tripinfo id="11" depart="14.00" departLane="SC_1" departPos="5.10" departSpeed="0.00" departDelay="0.00" arrival="35.00" arrivalLane="CE_1" arrivalPos="86.40" arrivalSpeed="15.04" duration="21.00" routeLength="176.73" waitingTime="1.00" waitingCount="1" stopTime="0.00" timeLoss="8.97" rerouteNo="0" devices="tripinfo_11 routing_11" vType="DEFAULT_VEHTYPE" speedFactor="1.12" vaporized=""/>
    <tripinfo id="9" depart="15.00" departLane="EC_1" departPos="5.10" departSpeed="0.00" departDelay="3.00" arrival="38.00" arrivalLane="CN_1" arrivalPos="100.00" arrivalSpeed="13.71" duration="23.00" routeLength="190.33" waitingTime="1.00" waitingCount="1" stopTime="0.00" timeLoss="9.05" rerouteNo="0" devices="tripinfo_9 routing_9" vType="DEFAULT_VEHTYPE" speedFactor="1.03" vaporized=""/>
    <tripinfo id="12" depart="16.00" departLane="NC_1" departPos="5.10" departSpeed="0.00" departDelay="0.00" arrival="39.00" arrivalLane="CW_1" arrivalPos="86.40" arrivalSpeed="13.47" duration="23.00" routeLength="190.33" waitingTime="0.00" waitingCount="0" stopTime="0.00" timeLoss="8.09" rerouteNo="0" devices="tripinfo_12 routing_12" vType="DEFAULT_VEHTYPE" speedFactor="0.99" vaporized=""/>
    <tripinfo id="13" depart="18.00" departLane="EC_1" departPos="5.10" departSpeed="0.00" departDelay="2.00" arrival="44.00" arrivalLane="CW_2" arrivalPos="86.40" arrivalSpeed="12.74" duration="26.00" routeLength="194.90" waitingTime="1.00" waitingCount="1" stopTime="0.00" timeLoss="10.01" rerouteNo="0" devices="tripinfo_13 routing_13" vType="DEFAULT_VEHTYPE" speedFactor="0.93" vaporized=""/>
    <personinfo id="ped5" depart="12.00" type="DEFAULT_PEDTYPE">
        <walk depart="12.00" departPos="8.77" arrival="45.00" arrivalPos="60.44" duration="33.00" routeLength="38.98" timeLoss="3.68" maxSpeed="1.33"/>
    </personinfo>
    <tripinfo id="18" depart="21.00" departLane="EC_1" departPos="5.10" departSpeed="0.00" departDelay="3.00" arrival="45.00" arrivalLane="CN_1" arrivalPos="100.00" arrivalSpeed="14.04" duration="24.00" routeLength="190.33" waitingTime="0.00" waitingCount="0" stopTime="0.00" timeLoss="9.16" rerouteNo="0" devices="tripinfo_18 routing_18" vType="DEFAULT_VEHTYPE" speedFactor="1.02" vaporized=""/>
    <tripinfo id="14" depart="17.00" departLane="WC_1" departPos="5.10" departSpeed="0.00" departDelay="0.00" arrival="49.00" arrivalLane="CN_3" arrivalPos="100.00" arrivalSpeed="11.15" duration="32.00" routeLength="205.81" waitingTime="3.00" waitingCount="1" stopTime="0.00" timeLoss="13.64" rerouteNo="0" devices="tripinfo_14 routing_14" vType="DEFAULT_VEHTYPE" speedFactor="0.88" vaporized=""/>
    <tripinfo id="17" depart="19.00" departLane="NC_1" departPos="5.10" departSpeed="0.00" departDelay="1.00" arrival="50.00" arrivalLane="CE_3" arrivalPos="86.40" arrivalSpeed="11.39" duration="31.00" routeLength="205.81" waitingTime="5.00" waitingCount="2" stopTime="0.00" timeLoss="17.60" rerouteNo="0" devices="tripinfo_17 routing_17" vType="DEFAULT_VEHTYPE" speedFactor="1.16" vaporized=""/>
    <tripinfo id="20" depart="23.00" departLane="EC_1" departPos="5.10" departSpeed="0.00" departDelay="2.00" arrival="50.00" arrivalLane="CN_1" arrivalPos="100.00" arrivalSpeed="13.39" duration="27.00" routeLength="190.33" waitingTime="0.00" waitingCount="0" stopTime="0.00" timeLoss="11.56" rerouteNo="0" devices="tripinfo_20 routing_20" vType="DEFAULT_VEHTYPE" speedFactor="0.98" vaporized=""/>
    <tripinfo id="24" depart="26.00" departLane="NC_1" departPos="5.10" departSpeed="0.00" departDelay="0.00" arrival="51.00" arrivalLane="CW_1" arrivalPos="86.40" arrivalSpeed="12.24" duration="25.00" routeLength="190.33" waitingTime="3.00" waitingCount="1" stopTime="0.00" timeLoss="9.30" rerouteNo="0" devices="tripinfo_24 routing_24" vType="DEFAULT_VEHTYPE" speedFactor="0.92" vaporized=""/>
    <tripinfo id="27" depart="29.00" departLane="NC_1" departPos="5.10" departSpeed="0.00" departDelay="2.00" arrival="56.00" arrivalLane="CW_1" arrivalPos="86.40" arrivalSpeed="12.91" duration="27.00" routeLength="190.33" waitingTime="0.00" waitingCount="0" stopTime="0.00" timeLoss="11.44" rerouteNo="0" devices="tripinfo_27 routing_27" vType="DEFAULT_VEHTYPE" speedFactor="0.93" vaporized=""/>
    <tripinfo id="21" depart="22.00" departLane="NC_1" departPos="5.10" departSpeed="0.00" departDelay="0.00" arrival="58.00" arrivalLane="CS_2" arrivalPos="86.40" arrivalSpeed="11.10" duration="36.00" routeLength="208.50" waitingTime="7.00" waitingCount="3" stopTime="0.00" timeLoss="18.76" rerouteNo="0" devices="tripinfo_21 routing_21" vType="DEFAULT_VEHTYPE" speedFactor="0.89" vaporized=""/>
    <tripinfo id="30" depart="29.00" departLane="WC_1" departPos="5.10" departSpeed="0.00" departDelay="0.00" arrival="61.00" arrivalLane="CN_3" arrivalPos="100.00" arrivalSpeed="13.69" duration="32.00" routeLength="205.81" waitingTime="2.00" waitingCount="1" stopTime="0.00" timeLoss="15.94" rerouteNo="0" devices="tripinfo_30 routing_30" vType="DEFAULT_VEHTYPE" speedFactor="1.01" vaporized=""/>
    <personinfo id="ped0" depart="1.00" type="DEFAULT_PEDTYPE">
        <walk depart="1.00" departPos="42.46" arrival="64.00" arrivalPos="3.93" duration="63.00" routeLength="75.07" timeLoss="9.51" maxSpeed="1.40"/>
    </personinfo>
    <tripinfo id="3" depart="5.00" departLane="SC_1" departPos="5.10" departSpeed="0.00" departDelay="0.00" arrival="64.00" arrivalLane="CS_2" arrivalPos="86.40" arrivalSpeed="10.37" duration="59.00" routeLength="426.77" waitingTime="3.00" waitingCount="2" stopTime="0.00" timeLoss="20.13" rerouteNo="1" devices="tripinfo_3 routing_3" vType="DEFAULT_VEHTYPE" speedFactor="0.83" vaporized=""/>
    <tripinfo id="19" depart="19.00" departLane="SC_1" departPos="5.10" departSpeed="0.00" departDelay="0.00" arrival="66.00" arrivalLane="CS_2" arrivalPos="86.40" arrivalSpeed="13.20" duration="47.00" routeLength="426.77" waitingTime="0.00" waitingCount="0" stopTime="0.00" timeLoss="15.74" rerouteNo="1" devices="tripinfo_19 routing_19" vType="DEFAULT_VEHTYPE" speedFactor="1.01" vaporized=""/>
    <personinfo id="ped1" depart="3.00" type="DEFAULT_PEDTYPE">
        <walk depart="3.00" departPos="41.72" arrival="70.00" arrivalPos="50.55" duration="67.00" routeLength="81.81" timeLoss="7.79" maxSpeed="1.38"/>
    </personinfo>
    <tripinfo id="4" depart="6.00" departLane="WC_1" departPos="5.10" departSpeed="0.00" departDelay="0.00" arrival="71.00" arrivalLane="CW_2" arrivalPos="86.40" arrivalSpeed="13.39" duration="65.00" routeLength="399.57" waitingTime="10.00" waitingCount="4" stopTime="0.00" timeLoss="36.02" rerouteNo="1" devices="tripinfo_4 routing_4" vType="DEFAULT_VEHTYPE" speedFactor="1.05" vaporized=""/>
    <tripinfo id="29" depart="36.00" departLane="EC_1" departPos="5.10" departSpeed="0.00" departDelay="7.00" arrival="77.00" arrivalLane="CW_2" arrivalPos="86.40" arrivalSpeed="15.54" duration="41.00" routeLength="194.90" waitingTime="7.00" waitingCount="4" stopTime="0.00" timeLoss="28.73" rerouteNo="0" devices="tripinfo_29 routing_29" vType="DEFAULT_VEHTYPE" speedFactor="1.15" vaporized=""/>
    <tripinfo id="26" depart="31.00" departLane="EC_1" departPos="5.10" departSpeed="0.00" departDelay="4.00" arrival="78.00" arrivalLane="CS_3" arrivalPos="86.40" arrivalSpeed="15.62" duration="47.00" routeLength="192.21" waitingTime="19.00" waitingCount="2" stopTime="0.00" timeLoss="33.87" rerouteNo="0" devices="tripinfo_26 routing_26" vType="DEFAULT_VEHTYPE" speedFactor="1.13" vaporized=""/>
    <personinfo id="ped2" depart="4.00" type="DEFAULT_PEDTYPE">
        <walk depart="4.00" departPos="30.27" arrival="79.00" arrivalPos="2.38" duration="75.00" routeLength="93.31" timeLoss="9.11" maxSpeed="1.42"/>
    </personinfo>
    <tripinfo id="10" depart="13.00" departLane="WC_1" departPos="5.10" departSpeed="0.00" departDelay="0.00" arrival="84.00" arrivalLane="CW_2" arrivalPos="86.40" arrivalSpeed="14.49" duration="71.00" routeLength="399.57" waitingTime="3.00" waitingCount="1" stopTime="0.00" timeLoss="42.06" rerouteNo="1" devices="tripinfo_10 routing_10" vType="DEFAULT_VEHTYPE" speedFactor="1.05" vaporized=""/>
    <tripinfo id="23" depart="27.00" departLane="EC_1" departPos="5.10" departSpeed="0.00" departDelay="3.00" arrival="85.00" arrivalLane="CE_2" arrivalPos="86.40" arrivalSpeed="11.16" duration="58.00" routeLength="399.57" waitingTime="5.00" waitingCount="2" stopTime="0.00" timeLoss="23.61" rerouteNo="1" devices="tripinfo_23 routing_23" vType="DEFAULT_VEHTYPE" speedFactor="0.87" vaporized=""/>
    <tripinfo id="28" depart="33.00" departLane="EC_1" departPos="5.10" departSpeed="0.00" departDelay="5.00" arrival="88.00" arrivalLane="CS_3" arrivalPos="86.40" arrivalSpeed="15.62" duration="55.00" routeLength="192.21" waitingTime="23.00" waitingCount="3" stopTime="0.00" timeLoss="42.04" rerouteNo="0" devices="tripinfo_28 routing_28" vType="DEFAULT_VEHTYPE" speedFactor="1.18" vaporized=""/>
    <tripinfo id="25" depart="29.00" departLane="EC_1" departPos="5.10" departSpeed="0.00" departDelay="3.00" arrival="89.00" arrivalLane="CE_2" arrivalPos="86.40" arrivalSpeed="11.97" duration="60.00" routeLength="399.57" waitingTime="10.00" waitingCount="3" stopTime="0.00" timeLoss="29.05" rerouteNo="1" devices="tripinfo_25 routing_25" vType="DEFAULT_VEHTYPE" speedFactor="0.95" vaporized=""/>
    <tripinfo id="22" depart="24.00" departLane="WC_1" departPos="5.10" departSpeed="0.00" departDelay="0.00" arrival="91.00" arrivalLane="CW_2" arrivalPos="86.40" arrivalSpeed="10.87" duration="67.00" routeLength="399.57" waitingTime="3.00" waitingCount="1" stopTime="0.00" timeLoss="30.17" rerouteNo="1" devices="tripinfo_22 routing_22" vType="DEFAULT_VEHTYPE" speedFactor="0.83" vaporized=""/>
