<?xml version="1.0" encoding="UTF-8"?>

<!-- generated on Tue 03 Dec 2019 11:38:09 PM EST by Eclipse SUMO GUI Version 1.3.1
<configuration xmlns:xsi="http://www.w3.org/2001/XMLSchema-instance" xsi:noNamespaceSchemaLocation="http://sumo.dlr.de/xsd/sumoConfiguration.xsd">

    <input>
        <net-file value="std_crossroad.net.xml"/>
        <route-files value="std_crossroad.rou.xml,std_crossroad.ped.xml"/>
        <additional-files value="std_crossroad.det.xml"/>
    </input>

    <output>
        <tripinfo-output value="tripinfo.xml"/>
    </output>

    <report>
        <verbose value="true"/>
        <no-step-log value="true"/>
    </report>

    <traci_server>
        <remote-port value="35643"/>
    </traci_server>

    <gui_only>
        <gui-settings-file value="viewsettings.xml"/>
    </gui_only>

</configuration>
-->

<tripinfos xmlns:xsi="http://www.w3.org/2001/XMLSchema-instance" xsi:noNamespaceSchemaLocation="http://sumo.dlr.de/xsd/tripinfo_file.xsd">
    <tripinfo id="1" depart="3.00" departLane="NC_1" departPos="5.10" departSpeed="0.00" departDelay="0.00" arrival="23.00" arrivalLane="CE_3" arrivalPos="86.40" arrivalSpeed="14.70" duration="20.00" routeLength="205.81" waitingTime="0.00" waitingCount="0" stopTime="0.00" timeLoss="5.76" rerouteNo="0" devices="tripinfo_1 routing_1" vType="DEFAULT_VEHTYPE" speedFactor="1.08" vaporized=""/>
    <tripinfo id="0" depart="2.00" departLane="WC_1" departPos="5.10" departSpeed="0.00" departDelay="0.00" arrival="24.00" arrivalLane="CN_3" arrivalPos="100.00" arrivalSpeed="14.48" duration="22.00" routeLength="205.81" waitingTime="0.00" waitingCount="0" stopTime="0.00" timeLoss="7.49" rerouteNo="0" devices="tripinfo_0 routing_0" vType="DEFAULT_VEHTYPE" speedFactor="1.06" vaporized=""/>
    <tripinfo id="2" depart="5.00" departLane="EC_1" departPos="5.10" departSpeed="0.00" departDelay="0.00" arrival="28.00" arrivalLane="CW_2" arrivalPos="86.40" arrivalSpeed="13.77" duration="23.00" routeLength="194.90" waitingTime="0.00" waitingCount="0" stopTime="0.00" timeLoss="8.45" rerouteNo="0" devices="tripinfo_2 routing_2" vType="DEFAULT_VEHTYPE" speedFactor="1.03" vaporized=""/>
    <tripinfo id="6" depart="10.00" departLane="WC_1" departPos="5.10" departSpeed="0.00" departDelay="0.00" arrival="31.00" arrivalLane="CS_1" arrivalPos="86.40" arrivalSpeed="12.15" duration="21.00" routeLength="176.73" waitingTime="0.00" waitingCount="0" stopTime="0.00" timeLoss="5.95" rerouteNo="0" devices="tripinfo_6 routing_6" vType="DEFAULT_VEHTYPE" speedFactor="0.94" vaporized=""/>
    <tripinfo id="8" depart="12.00" departLane="EC_1" departPos="5.10" departSpeed="0.00" departDelay="0.00" arrival="32.00" arrivalLane="CN_1" arrivalPos="100.00" arrivalSpeed="14.29" duration="20.00" routeLength="190.33" waitingTime="0.00" waitingCount="0" stopTime="0.00" timeLoss="5.89" rerouteNo="0" devices="tripinfo_8 routing_8" vType="DEFAULT_VEHTYPE" speedFactor="1.09" vaporized=""/>
    <tripinfo id="7" depart="10.00" departLane="NC_1" departPos="5.10" departSpeed="0.00" departDelay="0.00" arrival="34.00" arrivalLane="CW_1" arrivalPos="86.40" arrivalSpeed="10.61" duration="24.00" routeLength="190.33" waitingTime="1.00" waitingCount="1" stopTime="0.00" timeLoss="6.80" rerouteNo="0" devices="tripinfo_7 routing_7" vType="DEFAULT_VEHTYPE" speedFactor="0.86" vaporized=""/>
    <tripinfo id="5" depart="8.00" departLane="WC_1" departPos="5.10" departSpeed="0.00" departDelay="0.00" arrival="35.00" arrivalLane="CE_2" arrivalPos="86.40" arrivalSpeed="12.21" duration="27.00" routeLength="194.90" waitingTime="0.00" waitingCount="0" stopTime="0.00" timeLoss="11.08" rerouteNo="0" devices="tripinfo_5 routing_5" vType="DEFAULT_VEHTYPE" speedFactor="0.89" vaporized=""/>
    <tripinfo id="9" depart="15.00" departLane="EC_1" departPos="5.10" departSpeed="0.00" departDelay="3.00" arrival="35.00" arrivalLane="CN_1" arrivalPos="100.00" arrivalSpeed="13.40" duration="20.00" routeLength="190.33" waitingTime="0.00" waitingCount="0" stopTime="0.00" timeLoss="5.25" rerouteNo="0" devices="tripinfo_9 routing_9" vType="DEFAULT_VEHTYPE" speedFactor="1.03" vaporized=""/>
    <tripinfo id="11" depart="14.00" departLane="SC_1" departPos="5.10" departSpeed="0.00" departDelay="0.00" arrival="35.00" arrivalLane="CE_1" arrivalPos="86.40" arrivalSpeed="15.04" duration="21.00" routeLength="176.73" waitingTime="1.00" waitingCount="1" stopTime="0.00" timeLoss="9.01" rerouteNo="0" devices="tripinfo_11 routing_11" vType="DEFAULT_VEHTYPE" speedFactor="1.12" vaporized=""/>
    <tripinfo id="12" depart="16.00" departLane="NC_1" departPos="5.10" departSpeed="0.00" departDelay="0.00" arrival="37.00" arrivalLane="CW_1" arrivalPos="86.40" arrivalSpeed="13.47" duration="21.00" routeLength="190.33" waitingTime="0.00" waitingCount="0" stopTime="0.00" timeLoss="6.16" rerouteNo="0" devices="tripinfo_12 routing_12" vType="DEFAULT_VEHTYPE" speedFactor="0.99" vaporized=""/>
    <tripinfo id="13" depart="18.00" departLane="EC_1" departPos="5.10" departSpeed="0.00" departDelay="2.00" arrival="38.00" arrivalLane="CW_2" arrivalPos="86.40" arrivalSpeed="12.28" duration="20.00" routeLength="194.90" waitingTime="0.00" waitingCount="0" stopTime="0.00" timeLoss="4.11" rerouteNo="0" devices="tripinfo_13 routing_13" vType="DEFAULT_VEHTYPE" speedFactor="0.93" vaporized=""/>
    <tripinfo id="15" depart="17.00" departLane="SC_1" departPos="5.10" departSpeed="0.00" departDelay="0.00" arrival="41.00" arrivalLane="CW_3" arrivalPos="86.40" arrivalSpeed="11.99" duration="24.00" routeLength="192.21" waitingTime="0.00" waitingCount="0" stopTime="0.00" timeLoss="7.90" rerouteNo="0" devices="tripinfo_15 routing_15" vType="DEFAULT_VEHTYPE" speedFactor="0.94" vaporized=""/>
    <tripinfo id="14" depart="17.00" departLane="WC_1" departPos="5.10" departSpeed="0.00" departDelay="0.00" arrival="42.00" arrivalLane="CN_3" arrivalPos="100.00" arrivalSpeed="11.56" duration="25.00" routeLength="205.81" waitingTime="0.00" waitingCount="0" stopTime="0.00" timeLoss="7.51" rerouteNo="0" devices="tripinfo_14 routing_14" vType="DEFAULT_VEHTYPE" speedFactor="0.88" vaporized=""/>
    <tripinfo id="18" depart="21.00" departLane="EC_1" departPos="5.10" departSpeed="0.00" departDelay="3.00" arrival="43.00" arrivalLane="CN_1" arrivalPos="100.00" arrivalSpeed="13.16" duration="22.00" routeLength="190.33" waitingTime="1.00" waitingCount="1" stopTime="0.00" timeLoss="7.23" rerouteNo="0" devices="tripinfo_18 routing_18" vType="DEFAULT_VEHTYPE" speedFactor="1.02" vaporized=""/>
    <tripinfo id="17" depart="19.00" departLane="NC_1" departPos="5.10" departSpeed="0.00" departDelay="1.00" arrival="44.00" arrivalLane="CE_3" arrivalPos="86.40" arrivalSpeed="16.09" duration="25.00" routeLength="205.81" waitingTime="1.00" waitingCount="1" stopTime="0.00" timeLoss="11.31" rerouteNo="0" devices="tripinfo_17 routing_17" vType="DEFAULT_VEHTYPE" speedFactor="1.16" vaporized=""/>
    <personinfo id="ped5" depart="12.00" type="DEFAULT_PEDTYPE">
        <walk depart="12.00" departPos="8.77" arrival="45.00" arrivalPos="60.44" duration="33.00" routeLength="38.98" timeLoss="3.68" maxSpeed="1.33"/>
    </personinfo>
    <tripinfo id="20" depart="23.00" departLane="EC_1" departPos="5.10" departSpeed="0.00" departDelay="2.00" arrival="46.00" arrivalLane="CN_1" arrivalPos="100.00" arrivalSpeed="13.39" duration="23.00" routeLength="190.33" waitingTime="0.00" waitingCount="0" stopTime="0.00" timeLoss="6.99" rerouteNo="0" devices="tripinfo_20 routing_20" vType="DEFAULT_VEHTYPE" speedFactor="0.98" vaporized=""/>
    <tripinfo id="21" depart="22.00" departLane="NC_1" departPos="5.10" departSpeed="0.00" departDelay="0.00" arrival="46.00" arrivalLane="CS_2" arrivalPos="86.40" arrivalSpeed="11.25" duration="24.00" routeLength="208.50" waitingTime="0.00" waitingCount="0" stopTime="0.00" timeLoss="6.49" rerouteNo="0" devices="tripinfo_21 routing_21" vType="DEFAULT_VEHTYPE" speedFactor="0.89" vaporized=""/>
    <tripinfo id="24" depart="26.00" departLane="NC_1" departPos="5.10" departSpeed="0.00" departDelay="0.00" arrival="47.00" arrivalLane="CW_1" arrivalPos="86.40" arrivalSpeed="12.61" duration="21.00" routeLength="190.33" waitingTime="0.00" waitingCount="0" stopTime="0.00" timeLoss="5.25" rerouteNo="0" devices="tripinfo_24 routing_24" vType="DEFAULT_VEHTYPE" speedFactor="0.92" vaporized=""/>
    <tripinfo id="27" depart="29.00" departLane="NC_1" departPos="5.10" departSpeed="0.00" departDelay="2.00" arrival="51.00" arrivalLane="CW_1" arrivalPos="86.40" arrivalSpeed="12.91" duration="22.00" routeLength="190.33" waitingTime="0.00" waitingCount="0" stopTime="0.00" timeLoss="5.80" rerouteNo="0" devices="tripinfo_27 routing_27" vType="DEFAULT_VEHTYPE" speedFactor="0.93" vaporized=""/>
    <tripinfo id="4" depart="6.00" departLane="WC_1" departPos="5.10" departSpeed="0.00" departDelay="0.00" arrival="53.00" arrivalLane="CW_2" arrivalPos="86.40" arrivalSpeed="14.15" duration="47.00" routeLength="399.57" waitingTime="1.00" waitingCount="1" stopTime="0.00" timeLoss="18.63" rerouteNo="1" devices="tripinfo_4 routing_4" vType="DEFAULT_VEHTYPE" speedFactor="1.05" vaporized=""/>
    <tripinfo id="26" depart="31.00" departLane="EC_1" departPos="5.10" departSpeed="0.00" departDelay="4.00" arrival="54.00" arrivalLane="CS_3" arrivalPos="86.40" arrivalSpeed="15.22" duration="23.00" routeLength="192.21" waitingTime="1.00" waitingCount="1" stopTime="0.00" timeLoss="10.09" rerouteNo="0" devices="tripinfo_26 routing_26" vType="DEFAULT_VEHTYPE" speedFactor="1.13" vaporized=""/>
    <tripinfo id="16" depart="18.00" departLane="SC_1" departPos="5.10" departSpeed="0.00" departDelay="0.00" arrival="55.00" arrivalLane="CW_2" arrivalPos="86.40" arrivalSpeed="6.17" duration="37.00" routeLength="192.21" waitingTime="1.00" waitingCount="1" stopTime="0.00" timeLoss="21.27" rerouteNo="0" devices="tripinfo_16 routing_16" vType="DEFAULT_VEHTYPE" speedFactor="0.94" vaporized=""/>
    <personinfo id="ped0" depart="1.00" type="DEFAULT_PEDTYPE">
        <walk depart="1.00" departPos="42.46" arrival="61.00" arrivalPos="3.93" duration="60.00" routeLength="75.07" timeLoss="6.51" maxSpeed="1.40"/>
    </personinfo>
    <tripinfo id="28" depart="34.00" departLane="EC_1" departPos="5.10" departSpeed="0.00" departDelay="6.00" arrival="63.00" arrivalLane="CS_3" arrivalPos="86.40" arrivalSpeed="15.66" duration="29.00" routeLength="192.21" waitingTime="3.00" waitingCount="1" stopTime="0.00" timeLoss="16.32" rerouteNo="0" devices="tripinfo_28 routing_28" vType="DEFAULT_VEHTYPE" speedFactor="1.18" vaporized=""/>
    <personinfo id="ped1" depart="3.00" type="DEFAULT_PEDTYPE">
        <walk depart="3.00" departPos="41.72" arrival="69.00" arrivalPos="50.55" duration="66.00" routeLength="81.81" timeLoss="6.79" maxSpeed="1.38"/>
    </personinfo>
    <tripinfo id="29" depart="35.00" departLane="EC_1" departPos="5.10" departSpeed="0.00" departDelay="6.00" arrival="69.00" arrivalLane="CW_2" arrivalPos="86.40" arrivalSpeed="15.80" duration="34.00" routeLength="194.90" waitingTime="7.00" waitingCount="1" stopTime="0.00" timeLoss="20.91" rerouteNo="0" devices="tripinfo_29 routing_29" vType="DEFAULT_VEHTYPE" speedFactor="1.15" vaporized=""/>
    <tripinfo id="30" depart="29.00" departLane="WC_1" departPos="5.10" departSpeed="0.00" departDelay="0.00" arrival="74.00" arrivalLane="CN_3" arrivalPos="100.00" arrivalSpeed="13.77" duration="45.00" routeLength="205.81" waitingTime="18.00" waitingCount="1" stopTime="0.00" timeLoss="28.92" rerouteNo="0" devices="tripinfo_30 routing_30" vType="DEFAULT_VEHTYPE" speedFactor="1.01" vaporized=""/>
    <tripinfo id="3" depart="5.00" departLane="SC_1" departPos="5.10" departSpeed="0.00" departDelay="0.00" arrival="76.00" arrivalLane="CS_2" arrivalPos="86.40" arrivalSpeed="10.37" duration="71.00" routeLength="426.77" waitingTime="9.00" waitingCount="2" stopTime="0.00" timeLoss="32.05" rerouteNo="1" devices="tripinfo_3 routing_3" vType="DEFAULT_VEHTYPE" speedFactor="0.83" vaporized=""/>
    <tripinfo id="10" depart="13.00" departLane="WC_1" departPos="5.10" departSpeed="0.00" departDelay="0.00" arrival="77.00" arrivalLane="CW_2" arrivalPos="86.40" arrivalSpeed="13.93" duration="64.00" routeLength="399.57" waitingTime="8.00" waitingCount="2" stopTime="0.00" timeLoss="35.69" rerouteNo="1" devices="tripinfo_10 routing_10" vType="DEFAULT_VEHTYPE" speedFactor="1.05" vaporized=""/>
    <personinfo id="ped2" depart="4.00" type="DEFAULT_PEDTYPE">
        <walk depart="4.00" departPos="30.27" arrival="79.00" arrivalPos="2.38" duration="75.00" routeLength="93.31" timeLoss="9.11" maxSpeed="1.42"/>
    </personinfo>
    <tripinfo id="23" depart="27.00" departLane="EC_1" departPos="5.10" departSpeed="0.00" departDelay="3.00" arrival="80.00" arrivalLane="CE_2" arrivalPos="86.40" arrivalSpeed="12.02" duration="53.00" routeLength="399.57" waitingTime="0.00" waitingCount="0" stopTime="0.00" timeLoss="18.89" rerouteNo="1" devices="tripinfo_23 routing_23" vType="DEFAULT_VEHTYPE" speedFactor="0.87" vaporized=""/>
    <tripinfo id="19" depart="19.00" departLane="SC_1" departPos="5.10" departSpeed="0.00" departDelay="0.00" arrival="88.00" arrivalLane="CS_2" arrivalPos="86.40" arrivalSpeed="13.20" duration="69.00" routeLength="426.77" waitingTime="13.00" waitingCount="4" stopTime="0.00" timeLoss="37.81" rerouteNo="1" devices="tripinfo_19 routing_19" vType="DEFAULT_VEHTYPE" speedFactor="1.01" vaporized=""/>
    <tripinfo id="22" depart="24.00" departLane="WC_1" departPos="5.10" departSpeed="0.00" departDelay="0.00" arrival="91.00" arrivalLane="CW_2" arrivalPos="86.40" arrivalSpeed="10.93" duration="67.00" routeLength="399.57" waitingTime="9.00" waitingCount="2" stopTime="0.00" timeLoss="30.82" rerouteNo="1" devices="tripinfo_22 routing_22" vType="DEFAULT_VEHTYPE" speedFactor="0.83" vaporized=""/>
    <tripinfo id="25" depart="29.00" departLane="EC_1" departPos="5.10" departSpeed="0.00" departDelay="3.00" arrival="93.00" arrivalLane="CE_2" arrivalPos="86.40" arrivalSpeed="13.00" duration="64.00" routeLength="399.57" waitingTime="8.00" waitingCount="1" stopTime="0.00" timeLoss="31.54" rerouteNo="1" devices="tripinfo_25 routing_25" vType="DEFAULT_VEHTYPE" speedFactor="0.95" vaporized=""/>
    <personinfo id="ped3" depart="9.00" type="DEFAULT_PEDTYPE">
        <walk depart="9.00" departPos="36.73" arrival="115.00" arrivalPos="49.27" duration="106.00" routeLength="134.89" timeLoss="23.67" maxSpeed="1.64"/>
    </personinfo>
    <personinfo id="ped4" depart="11.00" type="DEFAULT_PEDTYPE">
        <walk depart="11.00" departPos="49.56" arrival="116.00" arrivalPos="75.50" duration="105.00" routeLength="116.58" timeLoss="11.80" maxSpeed="1.25"/>
    </personinfo>
</tripinfos>
