<?xml version="1.0" encoding="UTF-8"?>

<!-- generated on Sun 17 Nov 2019 01:58:24 PM EST by Eclipse SUMO GUI Version 1.3.1
<configuration xmlns:xsi="http://www.w3.org/2001/XMLSchema-instance" xsi:noNamespaceSchemaLocation="http://sumo.dlr.de/xsd/sumoConfiguration.xsd">

    <input>
        <net-file value="plymouth.net.xml"/>
        <route-files value="plymouth.rou.xml"/>
        <additional-files value="plymouth.det.xml"/>
    </input>

    <time>
        <begin value="0"/>
    </time>

    <report>
        <verbose value="true"/>
        <no-step-log value="true"/>
    </report>

    <gui_only>
        <gui-settings-file value="plymouth.gui.xml"/>
    </gui_only>

</configuration>
-->

<detector xmlns:xsi="http://www.w3.org/2001/XMLSchema-instance" xsi:noNamespaceSchemaLocation="http://sumo.dlr.de/xsd/det_e2_file.xsd">
   <interval begin="0.00" end="60.00" id="e2det_-441142718#1_0" sampledSeconds="103.76" nVehEntered="8" nVehLeft="3" nVehSeen="8" meanSpeed="3.08" meanTimeLoss="10.52" meanOccupancy="17.51" maxOccupancy="50.00" meanMaxJamLengthInVehicles="1.15" meanMaxJamLengthInMeters="7.80" maxJamLengthInVehicles="5" maxJamLengthInMeters="35.01" jamLengthInVehiclesSum="69" jamLengthInMetersSum="467.76" meanHaltingDuration="14.80" maxHaltingDuration="21.00" haltingDurationSum="74.00" meanIntervalHaltingDuration="14.80" maxIntervalHaltingDuration="21.00" intervalHaltingDurationSum="74.00" startedHalts="5.00" meanVehicleNumber="1.80" maxVehicleNumber="5" />
   <interval begin="0.00" end="60.00" id="e2det_-441142718#1_1" sampledSeconds="27.00" nVehEntered="1" nVehLeft="0" nVehSeen="1" meanSpeed="0.58" meanTimeLoss="26.01" meanOccupancy="4.50" maxOccupancy="10.00" meanMaxJamLengthInVehicles="0.38" meanMaxJamLengthInMeters="1.92" maxJamLengthInVehicles="1" maxJamLengthInMeters="5.00" jamLengthInVehiclesSum="23" jamLengthInMetersSum="115.00" meanHaltingDuration="24.00" maxHaltingDuration="24.00" haltingDurationSum="24.00" meanIntervalHaltingDuration="24.00" maxIntervalHaltingDuration="24.00" intervalHaltingDurationSum="24.00" startedHalts="1.00" meanVehicleNumber="0.45" maxVehicleNumber="1" />
   <interval begin="0.00" end="60.00" id="e2det_-441142718#1_2" sampledSeconds="51.39" nVehEntered="4" nVehLeft="3" nVehSeen="4" meanSpeed="4.20" meanTimeLoss="8.59" meanOccupancy="7.21" maxOccupancy="20.00" meanMaxJamLengthInVehicles="0.35" meanMaxJamLengthInMeters="1.45" maxJamLengthInVehicles="1" maxJamLengthInMeters="5.00" jamLengthInVehiclesSum="21" jamLengthInMetersSum="87.24" meanHaltingDuration="8.00" maxHaltingDuration="18.00" haltingDurationSum="24.00" meanIntervalHaltingDuration="8.00" maxIntervalHaltingDuration="18.00" intervalHaltingDurationSum="24.00" startedHalts="3.00" meanVehicleNumber="0.92" maxVehicleNumber="3" />
   <interval begin="0.00" end="60.00" id="e2det_-8725031#1_0" sampledSeconds="232.62" nVehEntered="8" nVehLeft="2" nVehSeen="8" meanSpeed="1.09" meanTimeLoss="26.77" meanOccupancy="37.10" maxOccupancy="69.99" meanMaxJamLengthInVehicles="3.12" meanMaxJamLengthInMeters="21.93" maxJamLengthInVehicles="7" maxJamLengthInMeters="53.43" jamLengthInVehiclesSum="187" jamLengthInMetersSum="1315.95" meanHaltingDuration="19.70" maxHaltingDuration="29.00" haltingDurationSum="197.00" meanIntervalHaltingDuration="19.70" maxIntervalHaltingDuration="29.00" intervalHaltingDurationSum="197.00" startedHalts="10.00" meanVehicleNumber="3.98" maxVehicleNumber="7" />
   <interval begin="0.00" end="60.00" id="e2det_222786838#0_0" sampledSeconds="28.56" nVehEntered="3" nVehLeft="2" nVehSeen="3" meanSpeed="5.60" meanTimeLoss="5.99" meanOccupancy="4.61" maxOccupancy="10.00" meanMaxJamLengthInVehicles="0.25" meanMaxJamLengthInMeters="1.25" maxJamLengthInVehicles="1" maxJamLengthInMeters="5.00" jamLengthInVehiclesSum="15" jamLengthInMetersSum="75.00" meanHaltingDuration="16.00" maxHaltingDuration="16.00" haltingDurationSum="16.00" meanIntervalHaltingDuration="16.00" maxIntervalHaltingDuration="16.00" intervalHaltingDurationSum="16.00" startedHalts="1.00" meanVehicleNumber="0.53" maxVehicleNumber="1" />
   <interval begin="0.00" end="60.00" id="e2det_222786838#0_1" sampledSeconds="0.00" nVehEntered="0" nVehLeft="0" nVehSeen="0" meanSpeed="-1.00" meanTimeLoss="-1.00" meanOccupancy="0.00" maxOccupancy="0.00" meanMaxJamLengthInVehicles="0.00" meanMaxJamLengthInMeters="0.00" maxJamLengthInVehicles="0" maxJamLengthInMeters="0.00" jamLengthInVehiclesSum="0" jamLengthInMetersSum="0.00" meanHaltingDuration="0.00" maxHaltingDuration="0.00" haltingDurationSum="0.00" meanIntervalHaltingDuration="0.00" maxIntervalHaltingDuration="0.00" intervalHaltingDurationSum="0.00" startedHalts="0.00" meanVehicleNumber="0.00" maxVehicleNumber="0" />
   <interval begin="0.00" end="60.00" id="e2det_222786838#0_2" sampledSeconds="53.22" nVehEntered="6" nVehLeft="5" nVehSeen="6" meanSpeed="6.11" meanTimeLoss="4.95" meanOccupancy="8.07" maxOccupancy="28.21" meanMaxJamLengthInVehicles="0.22" meanMaxJamLengthInMeters="1.03" maxJamLengthInVehicles="1" maxJamLengthInMeters="5.00" jamLengthInVehiclesSum="13" jamLengthInMetersSum="61.56" meanHaltingDuration="5.33" maxHaltingDuration="12.00" haltingDurationSum="16.00" meanIntervalHaltingDuration="5.33" maxIntervalHaltingDuration="12.00" intervalHaltingDurationSum="16.00" startedHalts="3.00" meanVehicleNumber="0.98" maxVehicleNumber="3" />
   <interval begin="0.00" end="60.00" id="e2det_222786842#0_0" sampledSeconds="109.11" nVehEntered="4" nVehLeft="4" nVehSeen="4" meanSpeed="2.02" meanTimeLoss="23.01" meanOccupancy="17.78" maxOccupancy="40.00" meanMaxJamLengthInVehicles="1.25" meanMaxJamLengthInMeters="8.17" maxJamLengthInVehicles="4" maxJamLengthInMeters="27.51" jamLengthInVehiclesSum="75" jamLengthInMetersSum="490.32" meanHaltingDuration="19.75" maxHaltingDuration="26.00" haltingDurationSum="79.00" meanIntervalHaltingDuration="19.75" maxIntervalHaltingDuration="26.00" intervalHaltingDurationSum="79.00" startedHalts="4.00" meanVehicleNumber="1.87" maxVehicleNumber="4" />
   <interval begin="0.00" end="60.00" id="e2det_222786842#0_1" sampledSeconds="125.26" nVehEntered="5" nVehLeft="3" nVehSeen="5" meanSpeed="2.10" meanTimeLoss="20.87" meanOccupancy="20.17" maxOccupancy="50.00" meanMaxJamLengthInVehicles="1.23" meanMaxJamLengthInMeters="7.85" maxJamLengthInVehicles="4" maxJamLengthInMeters="28.42" jamLengthInVehiclesSum="74" jamLengthInMetersSum="471.27" meanHaltingDuration="11.57" maxHaltingDuration="29.00" haltingDurationSum="81.00" meanIntervalHaltingDuration="11.57" maxIntervalHaltingDuration="29.00" intervalHaltingDurationSum="81.00" startedHalts="7.00" meanVehicleNumber="2.15" maxVehicleNumber="5" />
   <interval begin="60.00" end="119.00" id="e2det_-441142718#1_0" sampledSeconds="183.79" nVehEntered="0" nVehLeft="5" nVehSeen="5" meanSpeed="0.54" meanTimeLoss="35.17" meanOccupancy="30.32" maxOccupancy="50.00" meanMaxJamLengthInVehicles="2.76" meanMaxJamLengthInMeters="19.26" maxJamLengthInVehicles="5" maxJamLengthInMeters="35.00" jamLengthInVehiclesSum="163" jamLengthInMetersSum="1136.55" meanHaltingDuration="47.40" maxHaltingDuration="51.00" haltingDurationSum="237.00" meanIntervalHaltingDuration="32.60" maxIntervalHaltingDuration="35.00" intervalHaltingDurationSum="163.00" startedHalts="0.00" meanVehicleNumber="3.17" maxVehicleNumber="5" />
   <interval begin="60.00" end="119.00" id="e2det_-441142718#1_1" sampledSeconds="31.72" nVehEntered="0" nVehLeft="1" nVehSeen="1" meanSpeed="0.16" meanTimeLoss="31.41" meanOccupancy="5.17" maxOccupancy="10.00" meanMaxJamLengthInVehicles="0.51" meanMaxJamLengthInMeters="2.54" maxJamLengthInVehicles="1" maxJamLengthInMeters="5.00" jamLengthInVehiclesSum="30" jamLengthInMetersSum="150.00" meanHaltingDuration="54.00" maxHaltingDuration="54.00" haltingDurationSum="54.00" meanIntervalHaltingDuration="30.00" maxIntervalHaltingDuration="30.00" intervalHaltingDurationSum="30.00" startedHalts="0.00" meanVehicleNumber="0.54" maxVehicleNumber="1" />
   <interval begin="60.00" end="119.00" id="e2det_-441142718#1_2" sampledSeconds="31.69" nVehEntered="0" nVehLeft="1" nVehSeen="1" meanSpeed="0.14" meanTimeLoss="30.80" meanOccupancy="4.48" maxOccupancy="8.69" meanMaxJamLengthInVehicles="0.51" meanMaxJamLengthInMeters="2.21" maxJamLengthInVehicles="1" maxJamLengthInMeters="4.35" jamLengthInVehiclesSum="30" jamLengthInMetersSum="130.37" meanHaltingDuration="48.00" maxHaltingDuration="48.00" haltingDurationSum="48.00" meanIntervalHaltingDuration="30.00" maxIntervalHaltingDuration="30.00" intervalHaltingDurationSum="30.00" startedHalts="0.00" meanVehicleNumber="0.54" maxVehicleNumber="1" />
   <interval begin="60.00" end="119.00" id="e2det_-8725031#1_0" sampledSeconds="42.82" nVehEntered="1" nVehLeft="7" nVehSeen="7" meanSpeed="5.65" meanTimeLoss="3.44" meanOccupancy="6.02" maxOccupancy="41.75" meanMaxJamLengthInVehicles="0.07" meanMaxJamLengthInMeters="0.21" maxJamLengthInVehicles="2" maxJamLengthInMeters="8.71" jamLengthInVehiclesSum="4" jamLengthInMetersSum="12.32" meanHaltingDuration="18.67" maxHaltingDuration="25.00" haltingDurationSum="56.00" meanIntervalHaltingDuration="1.33" maxIntervalHaltingDuration="3.00" intervalHaltingDurationSum="4.00" startedHalts="0.00" meanVehicleNumber="0.81" maxVehicleNumber="6" />
   <interval begin="60.00" end="119.00" id="e2det_222786838#0_0" sampledSeconds="31.70" nVehEntered="0" nVehLeft="1" nVehSeen="1" meanSpeed="0.16" meanTimeLoss="31.20" meanOccupancy="5.19" maxOccupancy="10.00" meanMaxJamLengthInVehicles="0.51" meanMaxJamLengthInMeters="2.54" maxJamLengthInVehicles="1" maxJamLengthInMeters="5.00" jamLengthInVehiclesSum="30" jamLengthInMetersSum="150.00" meanHaltingDuration="46.00" maxHaltingDuration="46.00" haltingDurationSum="46.00" meanIntervalHaltingDuration="30.00" maxIntervalHaltingDuration="30.00" intervalHaltingDurationSum="30.00" startedHalts="0.00" meanVehicleNumber="0.54" maxVehicleNumber="1" />
   <interval begin="60.00" end="119.00" id="e2det_222786838#0_1" sampledSeconds="0.00" nVehEntered="0" nVehLeft="0" nVehSeen="0" meanSpeed="-1.00" meanTimeLoss="-1.00" meanOccupancy="0.00" maxOccupancy="0.00" meanMaxJamLengthInVehicles="0.00" meanMaxJamLengthInMeters="0.00" maxJamLengthInVehicles="0" maxJamLengthInMeters="0.00" jamLengthInVehiclesSum="0" jamLengthInMetersSum="0.00" meanHaltingDuration="0.00" maxHaltingDuration="0.00" haltingDurationSum="0.00" meanIntervalHaltingDuration="0.00" maxIntervalHaltingDuration="0.00" intervalHaltingDurationSum="0.00" startedHalts="0.00" meanVehicleNumber="0.00" maxVehicleNumber="0" />
   <interval begin="60.00" end="119.00" id="e2det_222786838#0_2" sampledSeconds="32.01" nVehEntered="0" nVehLeft="1" nVehSeen="1" meanSpeed="0.16" meanTimeLoss="31.61" meanOccupancy="5.20" maxOccupancy="10.00" meanMaxJamLengthInVehicles="0.51" meanMaxJamLengthInMeters="2.54" maxJamLengthInVehicles="1" maxJamLengthInMeters="5.00" jamLengthInVehiclesSum="30" jamLengthInMetersSum="150.00" meanHaltingDuration="42.00" maxHaltingDuration="42.00" haltingDurationSum="42.00" meanIntervalHaltingDuration="30.00" maxIntervalHaltingDuration="30.00" intervalHaltingDurationSum="30.00" startedHalts="0.00" meanVehicleNumber="0.56" maxVehicleNumber="1" />
   <interval begin="60.00" end="119.00" id="e2det_222786842#0_0" sampledSeconds="0.00" nVehEntered="0" nVehLeft="0" nVehSeen="0" meanSpeed="-1.00" meanTimeLoss="-1.00" meanOccupancy="0.00" maxOccupancy="0.00" meanMaxJamLengthInVehicles="0.00" meanMaxJamLengthInMeters="0.00" maxJamLengthInVehicles="0" maxJamLengthInMeters="0.00" jamLengthInVehiclesSum="0" jamLengthInMetersSum="0.00" meanHaltingDuration="0.00" maxHaltingDuration="0.00" haltingDurationSum="0.00" meanIntervalHaltingDuration="0.00" maxIntervalHaltingDuration="0.00" intervalHaltingDurationSum="0.00" startedHalts="0.00" meanVehicleNumber="0.00" maxVehicleNumber="0" />
   <interval begin="60.00" end="119.00" id="e2det_222786842#0_1" sampledSeconds="8.21" nVehEntered="0" nVehLeft="2" nVehSeen="2" meanSpeed="1.38" meanTimeLoss="3.53" meanOccupancy="0.90" maxOccupancy="13.52" meanMaxJamLengthInVehicles="0.08" meanMaxJamLengthInMeters="0.51" maxJamLengthInVehicles="2" maxJamLengthInMeters="12.65" jamLengthInVehiclesSum="5" jamLengthInMetersSum="30.22" meanHaltingDuration="5.50" maxHaltingDuration="6.00" haltingDurationSum="11.00" meanIntervalHaltingDuration="2.50" maxIntervalHaltingDuration="3.00" intervalHaltingDurationSum="5.00" startedHalts="0.00" meanVehicleNumber="0.15" maxVehicleNumber="2" />
</detector>
